
Linearized model: Predictions were generated on 29-Aug-2024 at 16:02:37 using OpenFAST, compiled on Aug 29 2024 at 15:46:31 as a 64-bit application using double precision at commit -128-NOTFOUND
 linked with  NWTC Subroutine Library; ElastoDyn; BeamDyn; ServoDyn

Description from the FAST input file: FAST Certification Test #26: NREL 5.0 MW Baseline Wind Turbine (Onshore)

Simulation information:
   Simulation time:                     1.0005 s
   Rotor Speed:                         1.2670 rad/s
   Azimuth:                             1.2678 rad
   Wind Speed:                          0.0000 m/s
   Number of continuous states:        60
   Number of discrete states:           0
   Number of constraint states:         0
   Number of inputs:                    0
   Number of outputs:                  12
   Jacobians included in this file?    No

Order of continuous states:
   Row/Column Operating Point                                                   Rotating Frame? Derivative Order Description
   ---------- ---------------                                                   --------------- ---------------- -----------
          1    1.609363300160E-003                                                     T               2         finite element node 2 (number of elements = 1; element order = 5) translational displacement in X, m
          2    4.280345030788E-003                                                     T               2         finite element node 2 (number of elements = 1; element order = 5) translational displacement in Y, m
          3    4.794194592446E-004                                                     T               2         finite element node 2 (number of elements = 1; element order = 5) translational displacement in Z, m
          4   -1.012028138826E-003                                                     T               2         finite element node 2 (number of elements = 1; element order = 5) rotational displacement in X, rad
          4    4.092526390290E-004                                                     T               2         finite element node 2 (number of elements = 1; element order = 5) rotational displacement in X, rad
          4    1.022919976585E-005                                                     T               2         finite element node 2 (number of elements = 1; element order = 5) rotational displacement in X, rad
          7    1.971899854033E-002                                                     T               2         finite element node 3 (number of elements = 1; element order = 5) translational displacement in X, m
          8    4.240804475638E-002                                                     T               2         finite element node 3 (number of elements = 1; element order = 5) translational displacement in Y, m
          9    2.459413994931E-003                                                     T               2         finite element node 3 (number of elements = 1; element order = 5) translational displacement in Z, m
         10   -3.709443066359E-003                                                     T               2         finite element node 3 (number of elements = 1; element order = 5) rotational displacement in X, rad
         10    2.099207191405E-003                                                     T               2         finite element node 3 (number of elements = 1; element order = 5) rotational displacement in X, rad
         10    1.040781337052E-004                                                     T               2         finite element node 3 (number of elements = 1; element order = 5) rotational displacement in X, rad
         13    8.747479931078E-002                                                     T               2         finite element node 4 (number of elements = 1; element order = 5) translational displacement in X, m
         14    1.315362313501E-001                                                     T               2         finite element node 4 (number of elements = 1; element order = 5) translational displacement in Y, m
         15    6.274032434167E-003                                                     T               2         finite element node 4 (number of elements = 1; element order = 5) translational displacement in Z, m
         16   -5.635194626479E-003                                                     T               2         finite element node 4 (number of elements = 1; element order = 5) rotational displacement in X, rad
         16    5.697573995570E-003                                                     T               2         finite element node 4 (number of elements = 1; element order = 5) rotational displacement in X, rad
         16    2.833383999835E-004                                                     T               2         finite element node 4 (number of elements = 1; element order = 5) rotational displacement in X, rad
         19    2.020685231624E-001                                                     T               2         finite element node 5 (number of elements = 1; element order = 5) translational displacement in X, m
         20    2.229643844275E-001                                                     T               2         finite element node 5 (number of elements = 1; element order = 5) translational displacement in Y, m
         21    9.754134948659E-003                                                     T               2         finite element node 5 (number of elements = 1; element order = 5) translational displacement in Z, m
         22   -6.279966618988E-003                                                     T               2         finite element node 5 (number of elements = 1; element order = 5) rotational displacement in X, rad
         22    9.639063625121E-003                                                     T               2         finite element node 5 (number of elements = 1; element order = 5) rotational displacement in X, rad
         22    3.602614593116E-004                                                     T               2         finite element node 5 (number of elements = 1; element order = 5) rotational displacement in X, rad
         25    2.789759755370E-001                                                     T               2         finite element node 6 (number of elements = 1; element order = 5) translational displacement in X, m
         26    2.707267915653E-001                                                     T               2         finite element node 6 (number of elements = 1; element order = 5) translational displacement in Y, m
         27    1.033029007323E-002                                                     T               2         finite element node 6 (number of elements = 1; element order = 5) translational displacement in Z, m
         28   -6.454018829676E-003                                                     T               2         finite element node 6 (number of elements = 1; element order = 5) rotational displacement in X, rad
         28    1.103212633566E-002                                                     T               2         finite element node 6 (number of elements = 1; element order = 5) rotational displacement in X, rad
         28    3.626916560673E-004                                                     T               2         finite element node 6 (number of elements = 1; element order = 5) rotational displacement in X, rad
         31   -2.064899611660E-002                                                     T               2         First time derivative of finite element node 2 (number of elements = 1; element order = 5) translational displacement in X, m/s
         32   -1.105487715036E+001                                                     T               2         First time derivative of finite element node 2 (number of elements = 1; element order = 5) translational displacement in Y, m/s
         33    2.193022903190E-003                                                     T               2         First time derivative of finite element node 2 (number of elements = 1; element order = 5) translational displacement in Z, m/s
         34    1.267630366010E+000                                                     T               2         First time derivative of finite element node 2 (number of elements = 1; element order = 5) rotational displacement in X, rad/s
         35    1.038615708207E-004                                                     T               2         First time derivative of finite element node 2 (number of elements = 1; element order = 5) rotational displacement in Y, rad/s
         36   -5.519230103106E-002                                                     T               2         First time derivative of finite element node 2 (number of elements = 1; element order = 5) rotational displacement in Z, rad/s
         37   -2.334129963652E-002                                                     T               2         First time derivative of finite element node 3 (number of elements = 1; element order = 5) translational displacement in X, m/s
         38   -2.980237238794E+001                                                     T               2         First time derivative of finite element node 3 (number of elements = 1; element order = 5) translational displacement in Y, m/s
         39    5.026892501460E-002                                                     T               2         First time derivative of finite element node 3 (number of elements = 1; element order = 5) translational displacement in Z, m/s
         40    1.272624434048E+000                                                     T               2         First time derivative of finite element node 3 (number of elements = 1; element order = 5) rotational displacement in X, rad/s
         41   -9.594336946983E-004                                                     T               2         First time derivative of finite element node 3 (number of elements = 1; element order = 5) rotational displacement in Y, rad/s
         42   -5.535877126047E-002                                                     T               2         First time derivative of finite element node 3 (number of elements = 1; element order = 5) rotational displacement in Z, rad/s
         43   -5.196173910002E-002                                                     T               2         First time derivative of finite element node 4 (number of elements = 1; element order = 5) translational displacement in X, m/s
         44   -5.218954641479E+001                                                     T               2         First time derivative of finite element node 4 (number of elements = 1; element order = 5) translational displacement in Y, m/s
         45    1.635270959822E-001                                                     T               2         First time derivative of finite element node 4 (number of elements = 1; element order = 5) translational displacement in Z, m/s
         46    1.277542790783E+000                                                     T               2         First time derivative of finite element node 4 (number of elements = 1; element order = 5) rotational displacement in X, rad/s
         47   -2.031489382877E-003                                                     T               2         First time derivative of finite element node 4 (number of elements = 1; element order = 5) rotational displacement in Y, rad/s
         48   -5.583056055126E-002                                                     T               2         First time derivative of finite element node 4 (number of elements = 1; element order = 5) rotational displacement in Z, rad/s
         49   -4.772375921639E-002                                                     T               2         First time derivative of finite element node 5 (number of elements = 1; element order = 5) translational displacement in X, m/s
         50   -7.107970164969E+001                                                     T               2         First time derivative of finite element node 5 (number of elements = 1; element order = 5) translational displacement in Y, m/s
         51    2.799552993268E-001                                                     T               2         First time derivative of finite element node 5 (number of elements = 1; element order = 5) translational displacement in Z, m/s
         52    1.280204526836E+000                                                     T               2         First time derivative of finite element node 5 (number of elements = 1; element order = 5) rotational displacement in X, rad/s
         53    3.764033650836E-003                                                     T               2         First time derivative of finite element node 5 (number of elements = 1; element order = 5) rotational displacement in Y, rad/s
         54   -5.623190721967E-002                                                     T               2         First time derivative of finite element node 5 (number of elements = 1; element order = 5) rotational displacement in Z, rad/s
         55    1.305815330877E-002                                                     T               2         First time derivative of finite element node 6 (number of elements = 1; element order = 5) translational displacement in X, m/s
         56   -8.034098887893E+001                                                     T               2         First time derivative of finite element node 6 (number of elements = 1; element order = 5) translational displacement in Y, m/s
         57    3.404125748406E-001                                                     T               2         First time derivative of finite element node 6 (number of elements = 1; element order = 5) translational displacement in Z, m/s
         58    1.280690427364E+000                                                     T               2         First time derivative of finite element node 6 (number of elements = 1; element order = 5) rotational displacement in X, rad/s
         59    1.142111177694E-002                                                     T               2         First time derivative of finite element node 6 (number of elements = 1; element order = 5) rotational displacement in Y, rad/s
         60   -5.630966186160E-002                                                     T               2         First time derivative of finite element node 6 (number of elements = 1; element order = 5) rotational displacement in Z, rad/s

Order of continuous state derivatives:
   Row/Column Operating Point                                                   Rotating Frame? Derivative Order Description
   ---------- ---------------                                                   --------------- ---------------- -----------
          1   -2.064899611660E-002                                                     T               2         First time derivative of finite element node 2 (number of elements = 1; element order = 5) translational displacement in X, m/s
          2   -1.105487715036E+001                                                     T               2         First time derivative of finite element node 2 (number of elements = 1; element order = 5) translational displacement in Y, m/s
          3    2.193022903190E-003                                                     T               2         First time derivative of finite element node 2 (number of elements = 1; element order = 5) translational displacement in Z, m/s
          4    1.267630366010E+000                                                     T               2         First time derivative of finite element node 2 (number of elements = 1; element order = 5) rotational displacement in X, rad/s
          5    1.038615708207E-004                                                     T               2         First time derivative of finite element node 2 (number of elements = 1; element order = 5) rotational displacement in Y, rad/s
          6   -5.519230103106E-002                                                     T               2         First time derivative of finite element node 2 (number of elements = 1; element order = 5) rotational displacement in Z, rad/s
          7   -2.334129963652E-002                                                     T               2         First time derivative of finite element node 3 (number of elements = 1; element order = 5) translational displacement in X, m/s
          8   -2.980237238794E+001                                                     T               2         First time derivative of finite element node 3 (number of elements = 1; element order = 5) translational displacement in Y, m/s
          9    5.026892501460E-002                                                     T               2         First time derivative of finite element node 3 (number of elements = 1; element order = 5) translational displacement in Z, m/s
         10    1.272624434048E+000                                                     T               2         First time derivative of finite element node 3 (number of elements = 1; element order = 5) rotational displacement in X, rad/s
         11   -9.594336946983E-004                                                     T               2         First time derivative of finite element node 3 (number of elements = 1; element order = 5) rotational displacement in Y, rad/s
         12   -5.535877126047E-002                                                     T               2         First time derivative of finite element node 3 (number of elements = 1; element order = 5) rotational displacement in Z, rad/s
         13   -5.196173910002E-002                                                     T               2         First time derivative of finite element node 4 (number of elements = 1; element order = 5) translational displacement in X, m/s
         14   -5.218954641479E+001                                                     T               2         First time derivative of finite element node 4 (number of elements = 1; element order = 5) translational displacement in Y, m/s
         15    1.635270959822E-001                                                     T               2         First time derivative of finite element node 4 (number of elements = 1; element order = 5) translational displacement in Z, m/s
         16    1.277542790783E+000                                                     T               2         First time derivative of finite element node 4 (number of elements = 1; element order = 5) rotational displacement in X, rad/s
         17   -2.031489382877E-003                                                     T               2         First time derivative of finite element node 4 (number of elements = 1; element order = 5) rotational displacement in Y, rad/s
         18   -5.583056055126E-002                                                     T               2         First time derivative of finite element node 4 (number of elements = 1; element order = 5) rotational displacement in Z, rad/s
         19   -4.772375921639E-002                                                     T               2         First time derivative of finite element node 5 (number of elements = 1; element order = 5) translational displacement in X, m/s
         20   -7.107970164969E+001                                                     T               2         First time derivative of finite element node 5 (number of elements = 1; element order = 5) translational displacement in Y, m/s
         21    2.799552993268E-001                                                     T               2         First time derivative of finite element node 5 (number of elements = 1; element order = 5) translational displacement in Z, m/s
         22    1.280204526836E+000                                                     T               2         First time derivative of finite element node 5 (number of elements = 1; element order = 5) rotational displacement in X, rad/s
         23    3.764033650836E-003                                                     T               2         First time derivative of finite element node 5 (number of elements = 1; element order = 5) rotational displacement in Y, rad/s
         24   -5.623190721967E-002                                                     T               2         First time derivative of finite element node 5 (number of elements = 1; element order = 5) rotational displacement in Z, rad/s
         25    1.305815330877E-002                                                     T               2         First time derivative of finite element node 6 (number of elements = 1; element order = 5) translational displacement in X, m/s
         26   -8.034098887893E+001                                                     T               2         First time derivative of finite element node 6 (number of elements = 1; element order = 5) translational displacement in Y, m/s
         27    3.404125748406E-001                                                     T               2         First time derivative of finite element node 6 (number of elements = 1; element order = 5) translational displacement in Z, m/s
         28    1.280690427364E+000                                                     T               2         First time derivative of finite element node 6 (number of elements = 1; element order = 5) rotational displacement in X, rad/s
         29    1.142111177694E-002                                                     T               2         First time derivative of finite element node 6 (number of elements = 1; element order = 5) rotational displacement in Y, rad/s
         30   -5.630966186160E-002                                                     T               2         First time derivative of finite element node 6 (number of elements = 1; element order = 5) rotational displacement in Z, rad/s
         31   -7.125064393999E-001                                                     T               2         First time derivative of First time derivative of finite element node 2 (number of elements = 1; element order = 5) translational displacement in X, m/s/s
         32    7.977409619650E-002                                                     T               2         First time derivative of First time derivative of finite element node 2 (number of elements = 1; element order = 5) translational displacement in Y, m/s/s
         33   -1.405901657855E+001                                                     T               2         First time derivative of First time derivative of finite element node 2 (number of elements = 1; element order = 5) translational displacement in Z, m/s/s
         34   -1.167812399301E-003                                                     T               2         First time derivative of First time derivative of finite element node 2 (number of elements = 1; element order = 5) rotational displacement in X, rad/s/s
         35   -3.030269220786E-003                                                     T               2         First time derivative of First time derivative of finite element node 2 (number of elements = 1; element order = 5) rotational displacement in Y, rad/s/s
         36   -1.466617549463E-002                                                     T               2         First time derivative of First time derivative of finite element node 2 (number of elements = 1; element order = 5) rotational displacement in Z, rad/s/s
         37   -1.479927896410E+000                                                     T               2         First time derivative of First time derivative of finite element node 3 (number of elements = 1; element order = 5) translational displacement in X, m/s/s
         38    6.924839099303E-002                                                     T               2         First time derivative of First time derivative of finite element node 3 (number of elements = 1; element order = 5) translational displacement in Y, m/s/s
         39   -3.787620708676E+001                                                     T               2         First time derivative of First time derivative of finite element node 3 (number of elements = 1; element order = 5) translational displacement in Z, m/s/s
         40   -4.891172622120E-003                                                     T               2         First time derivative of First time derivative of finite element node 3 (number of elements = 1; element order = 5) rotational displacement in X, rad/s/s
         41    3.585887505262E-002                                                     T               2         First time derivative of First time derivative of finite element node 3 (number of elements = 1; element order = 5) rotational displacement in Y, rad/s/s
         42   -2.021988877103E-002                                                     T               2         First time derivative of First time derivative of finite element node 3 (number of elements = 1; element order = 5) rotational displacement in Z, rad/s/s
         43   -2.019924368860E+000                                                     T               2         First time derivative of First time derivative of finite element node 4 (number of elements = 1; element order = 5) translational displacement in X, m/s/s
         44    9.472770757712E-002                                                     T               2         First time derivative of First time derivative of finite element node 4 (number of elements = 1; element order = 5) translational displacement in Y, m/s/s
         45   -6.644129101665E+001                                                     T               2         First time derivative of First time derivative of finite element node 4 (number of elements = 1; element order = 5) translational displacement in Z, m/s/s
         46   -1.707464972906E-002                                                     T               2         First time derivative of First time derivative of finite element node 4 (number of elements = 1; element order = 5) rotational displacement in X, rad/s/s
         47    1.829316753548E-002                                                     T               2         First time derivative of First time derivative of finite element node 4 (number of elements = 1; element order = 5) rotational displacement in Y, rad/s/s
         48   -3.959873870472E-002                                                     T               2         First time derivative of First time derivative of finite element node 4 (number of elements = 1; element order = 5) rotational displacement in Z, rad/s/s
         49   -3.719651938493E+000                                                     T               2         First time derivative of First time derivative of finite element node 5 (number of elements = 1; element order = 5) translational displacement in X, m/s/s
         50    3.950875689394E-001                                                     T               2         First time derivative of First time derivative of finite element node 5 (number of elements = 1; element order = 5) translational displacement in Y, m/s/s
         51   -9.061108604912E+001                                                     T               2         First time derivative of First time derivative of finite element node 5 (number of elements = 1; element order = 5) translational displacement in Z, m/s/s
         52   -3.999052717145E-002                                                     T               2         First time derivative of First time derivative of finite element node 5 (number of elements = 1; element order = 5) rotational displacement in X, rad/s/s
         53   -1.227278754828E-001                                                     T               2         First time derivative of First time derivative of finite element node 5 (number of elements = 1; element order = 5) rotational displacement in Y, rad/s/s
         54   -5.337880625289E-002                                                     T               2         First time derivative of First time derivative of finite element node 5 (number of elements = 1; element order = 5) rotational displacement in Z, rad/s/s
         55   -5.568511861058E+000                                                     T               2         First time derivative of First time derivative of finite element node 6 (number of elements = 1; element order = 5) translational displacement in X, m/s/s
         56    6.743960520032E-001                                                     T               2         First time derivative of First time derivative of finite element node 6 (number of elements = 1; element order = 5) translational displacement in Y, m/s/s
         57   -1.024663408010E+002                                                     T               2         First time derivative of First time derivative of finite element node 6 (number of elements = 1; element order = 5) translational displacement in Z, m/s/s
         58   -3.822709572061E-002                                                     T               2         First time derivative of First time derivative of finite element node 6 (number of elements = 1; element order = 5) rotational displacement in X, rad/s/s