
Linearized model: Predictions were generated on 28-Aug-2024 at 16:35:13 using OpenFAST, compiled on Aug 27 2024 at 21:42:35 as a 64-bit application using double precision at commit HEAD-HASH-NOTFOUND
 linked with  NWTC Subroutine Library; ElastoDyn; InflowWind; AeroDyn; ServoDyn

Description from the FAST input file: NREL 5.0 MW Baseline Wind Turbine (Onshore), Linearization with AeroDyn + ED

Simulation information:
   Simulation time:                   236.8100 s
   Rotor Speed:                         0.9982 rad/s
   Azimuth:                             0.0011 rad
   Wind Speed:                          8.0000 m/s
   Number of continuous states:       258
   Number of discrete states:           0
   Number of constraint states:         0
   Number of inputs:                   69
   Number of outputs:                   5
   Jacobians included in this file?    No

Order of continuous states:
   Row/Column Operating Point                                                   Rotating Frame? Derivative Order Description
   ---------- ---------------                                                   --------------- ---------------- -----------
          1    2.079541227762E-001                                                     F               2         ED 1st tower fore-aft bending mode DOF (internal DOF index = DOF_TFA1), m
          2    2.218481462051E-002                                                     F               2         ED 1st tower side-to-side bending mode DOF (internal DOF index = DOF_TSS1), m
          3   -7.363798640867E-005                                                     F               2         ED 2nd tower fore-aft bending mode DOF (internal DOF index = DOF_TFA2), m
          4    1.411587579682E-004                                                     F               2         ED 2nd tower side-to-side bending mode DOF (internal DOF index = DOF_TSS2), m
          5    4.711298302475E+000                                                     F               2         ED Variable speed generator DOF (internal DOF index = DOF_GeAz), rad
          6    2.185337623558E-003                                                     F               2         ED Drivetrain rotational-flexibility DOF (internal DOF index = DOF_DrTr), rad
          7    3.170514840964E+000                                                     T               2         ED 1st flapwise bending-mode DOF of blade 1 (internal DOF index = DOF_BF(1,1)), m
          8    3.348289947985E+000                                                     T               2         ED 1st flapwise bending-mode DOF of blade 2 (internal DOF index = DOF_BF(2,1)), m
          9    3.049620603409E+000                                                     T               2         ED 1st flapwise bending-mode DOF of blade 3 (internal DOF index = DOF_BF(3,1)), m
         10    8.525557659696E-002                                                     T               2         ED 1st edgewise bending-mode DOF of blade 1 (internal DOF index = DOF_BE(1,1)), m
         11   -3.198686454936E-001                                                     T               2         ED 1st edgewise bending-mode DOF of blade 2 (internal DOF index = DOF_BE(2,1)), m
         12    5.005083604548E-001                                                     T               2         ED 1st edgewise bending-mode DOF of blade 3 (internal DOF index = DOF_BE(3,1)), m
         13    5.634989709980E-002                                                     T               2         ED 2nd flapwise bending-mode DOF of blade 1 (internal DOF index = DOF_BF(1,2)), m
         14   -9.707024471593E-003                                                     T               2         ED 2nd flapwise bending-mode DOF of blade 2 (internal DOF index = DOF_BF(2,2)), m
         15    8.555335703115E-002                                                     T               2         ED 2nd flapwise bending-mode DOF of blade 3 (internal DOF index = DOF_BF(3,2)), m
         16    1.437534163442E-004                                                     F               2         ED First time derivative of 1st tower fore-aft bending mode DOF (internal DOF index = DOF_TFA1), m/s
         17   -3.494118437527E-003                                                     F               2         ED First time derivative of 1st tower side-to-side bending mode DOF (internal DOF index = DOF_TSS1), m/s
         18   -1.770932072834E-005                                                     F               2         ED First time derivative of 2nd tower fore-aft bending mode DOF (internal DOF index = DOF_TFA2), m/s
         19   -3.660280756230E-005                                                     F               2         ED First time derivative of 2nd tower side-to-side bending mode DOF (internal DOF index = DOF_TSS2), m/s
         20    9.983517146635E-001                                                     F               2         ED First time derivative of Variable speed generator DOF (internal DOF index = DOF_GeAz), rad/s
         21   -1.281718927051E-004                                                     F               2         ED First time derivative of Drivetrain rotational-flexibility DOF (internal DOF index = DOF_DrTr), rad/s
         22    2.112182230458E-001                                                     T               2         ED First time derivative of 1st flapwise bending-mode DOF of blade 1 (internal DOF index = DOF_BF(1,1)), m/s
         23   -9.547361814770E-002                                                     T               2         ED First time derivative of 1st flapwise bending-mode DOF of blade 2 (internal DOF index = DOF_BF(2,1)), m/s
         24   -1.595936485665E-001                                                     T               2         ED First time derivative of 1st flapwise bending-mode DOF of blade 3 (internal DOF index = DOF_BF(3,1)), m/s
         25   -5.489559209897E-001                                                     T               2         ED First time derivative of 1st edgewise bending-mode DOF of blade 1 (internal DOF index = DOF_BE(1,1)), m/s
         26    2.781571164577E-001                                                     T               2         ED First time derivative of 1st edgewise bending-mode DOF of blade 2 (internal DOF index = DOF_BE(2,1)), m/s
         27    2.946246686108E-001                                                     T               2         ED First time derivative of 1st edgewise bending-mode DOF of blade 3 (internal DOF index = DOF_BE(3,1)), m/s
         28   -6.793330770931E-002                                                     T               2         ED First time derivative of 2nd flapwise bending-mode DOF of blade 1 (internal DOF index = DOF_BF(1,2)), m/s
         29    1.969185572633E-002                                                     T               2         ED First time derivative of 2nd flapwise bending-mode DOF of blade 2 (internal DOF index = DOF_BF(2,2)), m/s
         30    9.458040368126E-002                                                     T               2         ED First time derivative of 2nd flapwise bending-mode DOF of blade 3 (internal DOF index = DOF_BF(3,2)), m/s
         31   -7.782879912881E+000                                                     T               2         AD vind (axial) at blade 1, node 1, m/s
         32    0.000000000000E+000                                                     T               2         AD vind (tangential) at blade 1, node 1, m/s
         33    0.000000000000E+000                                                     T               2         AD vind (axial) at blade 1, node 2, m/s
         34    0.000000000000E+000                                                     T               2         AD vind (tangential) at blade 1, node 2, m/s
         35    0.000000000000E+000                                                     T               2         AD vind (axial) at blade 1, node 3, m/s
         36    0.000000000000E+000                                                     T               2         AD vind (tangential) at blade 1, node 3, m/s
         37    0.000000000000E+000                                                     T               2         AD vind (axial) at blade 1, node 4, m/s
         38    0.000000000000E+000                                                     T               2         AD vind (tangential) at blade 1, node 4, m/s
         39   -2.011351224501E+000                                                     T               2         AD vind (axial) at blade 1, node 5, m/s
         40    9.500161493356E-001                                                     T               2         AD vind (tangential) at blade 1, node 5, m/s
         41   -2.176319601926E+000                                                     T               2         AD vind (axial) at blade 1, node 6, m/s
         42    7.660267976059E-001                                                     T               2         AD vind (tangential) at blade 1, node 6, m/s
         43   -1.996943699896E+000                                                     T               2         AD vind (axial) at blade 1, node 7, m/s
         44    5.862171883817E-001                                                     T               2         AD vind (tangential) at blade 1, node 7, m/s
         45   -1.982973885172E+000                                                     T               2         AD vind (axial) at blade 1, node 8, m/s
         46    4.880615815168E-001                                                     T               2         AD vind (tangential) at blade 1, node 8, m/s
         47   -2.218008443380E+000                                                     T               2         AD vind (axial) at blade 1, node 9, m/s
         48    4.497089051462E-001                                                     T               2         AD vind (tangential) at blade 1, node 9, m/s
         49   -2.291746688872E+000                                                     T               2         AD vind (axial) at blade 1, node 10, m/s
         50    4.013651919939E-001                                                     T               2         AD vind (tangential) at blade 1, node 10, m/s
         51   -2.573074085104E+000                                                     T               2         AD vind (axial) at blade 1, node 11, m/s
         52    3.802356768449E-001                                                     T               2         AD vind (tangential) at blade 1, node 11, m/s
         53   -2.774170547131E+000                                                     T               2         AD vind (axial) at blade 1, node 12, m/s
         54    3.545681356761E-001                                                     T               2         AD vind (tangential) at blade 1, node 12, m/s
         55   -2.630883334168E+000                                                     T               2         AD vind (axial) at blade 1, node 13, m/s
         56    3.134386915057E-001                                                     T               2         AD vind (tangential) at blade 1, node 13, m/s
         57   -2.746637615813E+000                                                     T               2         AD vind (axial) at blade 1, node 14, m/s
         58    2.925277271172E-001                                                     T               2         AD vind (tangential) at blade 1, node 14, m/s
         59   -2.909866815683E+000                                                     T               2         AD vind (axial) at blade 1, node 15, m/s
         60    2.761381503443E-001                                                     T               2         AD vind (tangential) at blade 1, node 15, m/s
         61   -3.170529762937E+000                                                     T               2         AD vind (axial) at blade 1, node 16, m/s
         62    2.673890859627E-001                                                     T               2         AD vind (tangential) at blade 1, node 16, m/s
         63   -3.486942383768E+000                                                     T               2         AD vind (axial) at blade 1, node 17, m/s
         64    2.643848745498E-001                                                     T               2         AD vind (tangential) at blade 1, node 17, m/s
         65   -3.635222817391E+000                                                     T               2         AD vind (axial) at blade 1, node 18, m/s
         66    2.604404682676E-001                                                     T               2         AD vind (tangential) at blade 1, node 18, m/s
         67   -7.921863670816E+000                                                     T               2         AD vind (axial) at blade 1, node 19, m/s
         68    0.000000000000E+000                                                     T               2         AD vind (tangential) at blade 1, node 19, m/s
         69   -7.867722297946E+000                                                     T               2         AD vind (axial) at blade 2, node 1, m/s
         70    0.000000000000E+000                                                     T               2         AD vind (tangential) at blade 2, node 1, m/s
         71    0.000000000000E+000                                                     T               2         AD vind (axial) at blade 2, node 2, m/s
         72    0.000000000000E+000                                                     T               2         AD vind (tangential) at blade 2, node 2, m/s
         73    0.000000000000E+000                                                     T               2         AD vind (axial) at blade 2, node 3, m/s
         74    0.000000000000E+000                                                     T               2         AD vind (tangential) at blade 2, node 3, m/s
         75    0.000000000000E+000                                                     T               2         AD vind (axial) at blade 2, node 4, m/s
         76    0.000000000000E+000                                                     T               2         AD vind (tangential) at blade 2, node 4, m/s
         77   -2.020236545949E+000                                                     T               2         AD vind (axial) at blade 2, node 5, m/s
         78    9.552101493991E-001                                                     T               2         AD vind (tangential) at blade 2, node 5, m/s
         79   -2.183316289831E+000                                                     T               2         AD vind (axial) at blade 2, node 6, m/s
         80    7.688748152452E-001                                                     T               2         AD vind (tangential) at blade 2, node 6, m/s
         81   -2.001230168865E+000                                                     T               2         AD vind (axial) at blade 2, node 7, m/s
         82    5.876349883206E-001                                                     T               2         AD vind (tangential) at blade 2, node 7, m/s
         83   -1.985468566269E+000                                                     T               2         AD vind (axial) at blade 2, node 8, m/s
         84    4.887309992147E-001                                                     T               2         AD vind (tangential) at blade 2, node 8, m/s
         85   -2.219317143693E+000                                                     T               2         AD vind (axial) at blade 2, node 9, m/s
         86    4.499699775000E-001                                                     T               2         AD vind (tangential) at blade 2, node 9, m/s
         87   -2.291559879285E+000                                                     T               2         AD vind (axial) at blade 2, node 10, m/s
         88    4.012862693646E-001                                                     T               2         AD vind (tangential) at blade 2, node 10, m/s
         89   -2.571306452436E+000                                                     T               2         AD vind (axial) at blade 2, node 11, m/s
         90    3.799099848689E-001                                                     T               2         AD vind (tangential) at blade 2, node 11, m/s
         91   -2.770129702016E+000                                                     T               2         AD vind (axial) at blade 2, node 12, m/s
         92    3.540073830719E-001                                                     T               2         AD vind (tangential) at blade 2, node 12, m/s
         93   -2.624360559029E+000                                                     T               2         AD vind (axial) at blade 2, node 13, m/s
         94    3.126457493552E-001                                                     T               2         AD vind (tangential) at blade 2, node 13, m/s
         95   -2.736421251210E+000                                                     T               2         AD vind (axial) at blade 2, node 14, m/s
         96    2.915524506122E-001                                                     T               2         AD vind (tangential) at blade 2, node 14, m/s
         97   -2.894807747186E+000                                                     T               2         AD vind (axial) at blade 2, node 15, m/s
         98    2.750580239146E-001                                                     T               2         AD vind (tangential) at blade 2, node 15, m/s
         99   -3.150094002002E+000                                                     T               2         AD vind (axial) at blade 2, node 16, m/s
        100    2.663608595595E-001                                                     T               2         AD vind (tangential) at blade 2, node 16, m/s
        101   -3.465436874189E+000                                                     T               2         AD vind (axial) at blade 2, node 17, m/s
        102    2.633874388934E-001                                                     T               2         AD vind (tangential) at blade 2, node 17, m/s
        103   -3.615293970981E+000                                                     T               2         AD vind (axial) at blade 2, node 18, m/s
        104    2.595742063478E-001                                                     T               2         AD vind (tangential) at blade 2, node 18, m/s
        105   -7.914780721401E+000                                                     T               2         AD vind (axial) at blade 2, node 19, m/s
        106    0.000000000000E+000                                                     T               2         AD vind (tangential) at blade 2, node 19, m/s
        107   -7.543997970353E+000                                                     T               2         AD vind (axial) at blade 3, node 1, m/s
        108    0.000000000000E+000                                                     T               2         AD vind (tangential) at blade 3, node 1, m/s
        109    0.000000000000E+000                                                     T               2         AD vind (axial) at blade 3, node 2, m/s
        110    0.000000000000E+000                                                     T               2         AD vind (tangential) at blade 3, node 2, m/s
        111    0.000000000000E+000                                                     T               2         AD vind (axial) at blade 3, node 3, m/s
        112    0.000000000000E+000                                                     T               2         AD vind (tangential) at blade 3, node 3, m/s
        113    0.000000000000E+000                                                     T               2         AD vind (axial) at blade 3, node 4, m/s
        114    0.000000000000E+000                                                     T               2         AD vind (tangential) at blade 3, node 4, m/s
        115   -2.002678521814E+000                                                     T               2         AD vind (axial) at blade 3, node 5, m/s
        116    9.401600368229E-001                                                     T               2         AD vind (tangential) at blade 3, node 5, m/s
        117   -2.164969573540E+000                                                     T               2         AD vind (axial) at blade 3, node 6, m/s
        118    7.605111161397E-001                                                     T               2         AD vind (tangential) at blade 3, node 6, m/s
        119   -1.989428522761E+000                                                     T               2         AD vind (axial) at blade 3, node 7, m/s
        120    5.835164066655E-001                                                     T               2         AD vind (tangential) at blade 3, node 7, m/s
        121   -1.977732345363E+000                                                     T               2         AD vind (axial) at blade 3, node 8, m/s
        122    4.867540634241E-001                                                     T               2         AD vind (tangential) at blade 3, node 8, m/s
        123   -2.213123016923E+000                                                     T               2         AD vind (axial) at blade 3, node 9, m/s
        124    4.490854636908E-001                                                     T               2         AD vind (tangential) at blade 3, node 9, m/s
        125   -2.286655342531E+000                                                     T               2         AD vind (axial) at blade 3, node 10, m/s
        126    4.012182970984E-001                                                     T               2         AD vind (tangential) at blade 3, node 10, m/s
        127   -2.565424246065E+000                                                     T               2         AD vind (axial) at blade 3, node 11, m/s
        128    3.803425732157E-001                                                     T               2         AD vind (tangential) at blade 3, node 11, m/s
        129   -2.762493352838E+000                                                     T               2         AD vind (axial) at blade 3, node 12, m/s
        130    3.548568916218E-001                                                     T               2         AD vind (tangential) at blade 3, node 12, m/s
        131   -2.617137887744E+000                                                     T               2         AD vind (axial) at blade 3, node 13, m/s
        132    3.137876307541E-001                                                     T               2         AD vind (tangential) at blade 3, node 13, m/s
        133   -2.728373112717E+000                                                     T               2         AD vind (axial) at blade 3, node 14, m/s
        134    2.929241842891E-001                                                     T               2         AD vind (tangential) at blade 3, node 14, m/s
        135   -2.886570364496E+000                                                     T               2         AD vind (axial) at blade 3, node 15, m/s
        136    2.766126937098E-001                                                     T               2         AD vind (tangential) at blade 3, node 15, m/s
        137   -3.140979415295E+000                                                     T               2         AD vind (axial) at blade 3, node 16, m/s
        138    2.680820716587E-001                                                     T               2         AD vind (tangential) at blade 3, node 16, m/s
        139   -3.455996955165E+000                                                     T               2         AD vind (axial) at blade 3, node 17, m/s
        140    2.651842127114E-001                                                     T               2         AD vind (tangential) at blade 3, node 17, m/s
        141   -3.607843069503E+000                                                     T               2         AD vind (axial) at blade 3, node 18, m/s
        142    2.610611180249E-001                                                     T               2         AD vind (tangential) at blade 3, node 18, m/s
        143   -7.903826178161E+000                                                     T               2         AD vind (axial) at blade 3, node 19, m/s
        144    0.000000000000E+000                                                     T               2         AD vind (tangential) at blade 3, node 19, m/s
        145   -3.101124050369E+000                                                     T               2         AD First time derivative of vind (axial) at blade 1, node 1, m/s/s
        146    0.000000000000E+000                                                     T               2         AD First time derivative of vind (tangential) at blade 1, node 1, m/s/s
        147    0.000000000000E+000                                                     T               2         AD First time derivative of vind (axial) at blade 1, node 2, m/s/s
        148    0.000000000000E+000                                                     T               2         AD First time derivative of vind (tangential) at blade 1, node 2, m/s/s
        149    0.000000000000E+000                                                     T               2         AD First time derivative of vind (axial) at blade 1, node 3, m/s/s
        150    0.000000000000E+000                                                     T               2         AD First time derivative of vind (tangential) at blade 1, node 3, m/s/s
        151    0.000000000000E+000                                                     T               2         AD First time derivative of vind (axial) at blade 1, node 4, m/s/s
        152    0.000000000000E+000                                                     T               2         AD First time derivative of vind (tangential) at blade 1, node 4, m/s/s
        153   -8.046381149437E-001                                                     T               2         AD First time derivative of vind (axial) at blade 1, node 5, m/s/s
        154    3.794377499631E-001                                                     T               2         AD First time derivative of vind (tangential) at blade 1, node 5, m/s/s
        155   -8.699495454759E-001                                                     T               2         AD First time derivative of vind (axial) at blade 1, node 6, m/s/s
        156    3.059935849636E-001                                                     T               2         AD First time derivative of vind (tangential) at blade 1, node 6, m/s/s
        157   -7.983384312409E-001                                                     T               2         AD First time derivative of vind (axial) at blade 1, node 7, m/s/s
        158    2.342538109951E-001                                                     T               2         AD First time derivative of vind (tangential) at blade 1, node 7, m/s/s
        159   -7.928735952074E-001                                                     T               2         AD First time derivative of vind (axial) at blade 1, node 8, m/s/s
        160    1.950932520893E-001                                                     T               2         AD First time derivative of vind (tangential) at blade 1, node 8, m/s/s
        161   -8.869482178744E-001                                                     T               2         AD First time derivative of vind (axial) at blade 1, node 9, m/s/s
        162    1.798129396972E-001                                                     T               2         AD First time derivative of vind (tangential) at blade 1, node 9, m/s/s
        163   -9.164129688015E-001                                                     T               2         AD First time derivative of vind (axial) at blade 1, node 10, m/s/s
        164    1.605204824983E-001                                                     T               2         AD First time derivative of vind (tangential) at blade 1, node 10, m/s/s
        165   -1.028738962914E+000                                                     T               2         AD First time derivative of vind (axial) at blade 1, node 11, m/s/s
        166    1.521020673852E-001                                                     T               2         AD First time derivative of vind (tangential) at blade 1, node 11, m/s/s
        167   -1.108745417818E+000                                                     T               2         AD First time derivative of vind (axial) at blade 1, node 12, m/s/s
        168    1.418660275779E-001                                                     T               2         AD First time derivative of vind (tangential) at blade 1, node 12, m/s/s
        169   -1.051046286911E+000                                                     T               2         AD First time derivative of vind (axial) at blade 1, node 13, m/s/s
        170    1.254362063775E-001                                                     T               2         AD First time derivative of vind (tangential) at blade 1, node 13, m/s/s