
Linearized model: Predictions were generated on 28-Aug-2024 at 16:35:13 using OpenFAST, compiled on Aug 27 2024 at 21:42:35 as a 64-bit application using double precision at commit HEAD-HASH-NOTFOUND
 linked with  NWTC Subroutine Library; ElastoDyn; InflowWind; AeroDyn; ServoDyn

Description from the FAST input file: NREL 5.0 MW Baseline Wind Turbine (Onshore), Linearization with AeroDyn + ED

Simulation information:
   Simulation time:                   238.9100 s
   Rotor Speed:                         0.9983 rad/s
   Azimuth:                             2.0972 rad
   Wind Speed:                          8.0000 m/s
   Number of continuous states:       258
   Number of discrete states:           0
   Number of constraint states:         0
   Number of inputs:                   69
   Number of outputs:                   5
   Jacobians included in this file?    No

Order of continuous states:
   Row/Column Operating Point                                                   Rotating Frame? Derivative Order Description
   ---------- ---------------                                                   --------------- ---------------- -----------
          1    2.080044085463E-001                                                     F               2         ED 1st tower fore-aft bending mode DOF (internal DOF index = DOF_TFA1), m
          2    2.294787155559E-002                                                     F               2         ED 1st tower side-to-side bending mode DOF (internal DOF index = DOF_TSS1), m
          3   -7.386684852099E-005                                                     F               2         ED 2nd tower fore-aft bending mode DOF (internal DOF index = DOF_TFA2), m
          4    1.405680823370E-004                                                     F               2         ED 2nd tower side-to-side bending mode DOF (internal DOF index = DOF_TSS2), m
          5    5.242714087305E-001                                                     F               2         ED Variable speed generator DOF (internal DOF index = DOF_GeAz), rad
          6    2.181641776166E-003                                                     F               2         ED Drivetrain rotational-flexibility DOF (internal DOF index = DOF_DrTr), rad
          7    3.349390993254E+000                                                     T               2         ED 1st flapwise bending-mode DOF of blade 1 (internal DOF index = DOF_BF(1,1)), m
          8    3.049255236668E+000                                                     T               2         ED 1st flapwise bending-mode DOF of blade 2 (internal DOF index = DOF_BF(2,1)), m
          9    3.171378086843E+000                                                     T               2         ED 1st flapwise bending-mode DOF of blade 3 (internal DOF index = DOF_BF(3,1)), m
         10   -3.197145066669E-001                                                     T               2         ED 1st edgewise bending-mode DOF of blade 1 (internal DOF index = DOF_BE(1,1)), m
         11    5.017387466277E-001                                                     T               2         ED 1st edgewise bending-mode DOF of blade 2 (internal DOF index = DOF_BE(2,1)), m
         12    8.443103343156E-002                                                     T               2         ED 1st edgewise bending-mode DOF of blade 3 (internal DOF index = DOF_BE(3,1)), m
         13   -9.692939332534E-003                                                     T               2         ED 2nd flapwise bending-mode DOF of blade 1 (internal DOF index = DOF_BF(1,2)), m
         14    8.576983641705E-002                                                     T               2         ED 2nd flapwise bending-mode DOF of blade 2 (internal DOF index = DOF_BF(2,2)), m
         15    5.627998245570E-002                                                     T               2         ED 2nd flapwise bending-mode DOF of blade 3 (internal DOF index = DOF_BF(3,2)), m
         16    1.987451128375E-004                                                     F               2         ED First time derivative of 1st tower fore-aft bending mode DOF (internal DOF index = DOF_TFA1), m/s
         17   -3.830257246373E-004                                                     F               2         ED First time derivative of 1st tower side-to-side bending mode DOF (internal DOF index = DOF_TSS1), m/s
         18   -1.519669353542E-005                                                     F               2         ED First time derivative of 2nd tower fore-aft bending mode DOF (internal DOF index = DOF_TFA2), m/s
         19   -3.956409756770E-005                                                     F               2         ED First time derivative of 2nd tower side-to-side bending mode DOF (internal DOF index = DOF_TSS2), m/s
         20    9.984748041647E-001                                                     F               2         ED First time derivative of Variable speed generator DOF (internal DOF index = DOF_GeAz), rad/s
         21   -1.313910673932E-004                                                     F               2         ED First time derivative of Drivetrain rotational-flexibility DOF (internal DOF index = DOF_DrTr), rad/s
         22   -9.605617522480E-002                                                     T               2         ED First time derivative of 1st flapwise bending-mode DOF of blade 1 (internal DOF index = DOF_BF(1,1)), m/s
         23   -1.606772914072E-001                                                     T               2         ED First time derivative of 1st flapwise bending-mode DOF of blade 2 (internal DOF index = DOF_BF(2,1)), m/s
         24    2.129956000106E-001                                                     T               2         ED First time derivative of 1st flapwise bending-mode DOF of blade 3 (internal DOF index = DOF_BF(3,1)), m/s
         25    2.823780222651E-001                                                     T               2         ED First time derivative of 1st edgewise bending-mode DOF of blade 1 (internal DOF index = DOF_BE(1,1)), m/s
         26    2.928854417499E-001                                                     T               2         ED First time derivative of 1st edgewise bending-mode DOF of blade 2 (internal DOF index = DOF_BE(2,1)), m/s
         27   -5.533941634031E-001                                                     T               2         ED First time derivative of 1st edgewise bending-mode DOF of blade 3 (internal DOF index = DOF_BE(3,1)), m/s
         28    1.984138860484E-002                                                     T               2         ED First time derivative of 2nd flapwise bending-mode DOF of blade 1 (internal DOF index = DOF_BF(1,2)), m/s
         29    9.449563522694E-002                                                     T               2         ED First time derivative of 2nd flapwise bending-mode DOF of blade 2 (internal DOF index = DOF_BF(2,2)), m/s
         30   -6.842737064392E-002                                                     T               2         ED First time derivative of 2nd flapwise bending-mode DOF of blade 3 (internal DOF index = DOF_BF(3,2)), m/s
         31   -7.867546660237E+000                                                     T               2         AD vind (axial) at blade 1, node 1, m/s
         32    0.000000000000E+000                                                     T               2         AD vind (tangential) at blade 1, node 1, m/s
         33    0.000000000000E+000                                                     T               2         AD vind (axial) at blade 1, node 2, m/s
         34    0.000000000000E+000                                                     T               2         AD vind (tangential) at blade 1, node 2, m/s
         35    0.000000000000E+000                                                     T               2         AD vind (axial) at blade 1, node 3, m/s
         36    0.000000000000E+000                                                     T               2         AD vind (tangential) at blade 1, node 3, m/s
         37    0.000000000000E+000                                                     T               2         AD vind (axial) at blade 1, node 4, m/s
         38    0.000000000000E+000                                                     T               2         AD vind (tangential) at blade 1, node 4, m/s
         39   -2.019976318843E+000                                                     T               2         AD vind (axial) at blade 1, node 5, m/s
         40    9.552402572243E-001                                                     T               2         AD vind (tangential) at blade 1, node 5, m/s
         41   -2.183298960804E+000                                                     T               2         AD vind (axial) at blade 1, node 6, m/s
         42    7.689538735964E-001                                                     T               2         AD vind (tangential) at blade 1, node 6, m/s
         43   -2.001231048017E+000                                                     T               2         AD vind (axial) at blade 1, node 7, m/s
         44    5.876951373860E-001                                                     T               2         AD vind (tangential) at blade 1, node 7, m/s
         45   -1.985455001658E+000                                                     T               2         AD vind (axial) at blade 1, node 8, m/s
         46    4.887750303472E-001                                                     T               2         AD vind (tangential) at blade 1, node 8, m/s
         47   -2.219236802867E+000                                                     T               2         AD vind (axial) at blade 1, node 9, m/s
         48    4.499986752123E-001                                                     T               2         AD vind (tangential) at blade 1, node 9, m/s
         49   -2.291454930338E+000                                                     T               2         AD vind (axial) at blade 1, node 10, m/s
         50    4.013057993092E-001                                                     T               2         AD vind (tangential) at blade 1, node 10, m/s
         51   -2.571135565117E+000                                                     T               2         AD vind (axial) at blade 1, node 11, m/s
         52    3.799210787812E-001                                                     T               2         AD vind (tangential) at blade 1, node 11, m/s
         53   -2.769925122070E+000                                                     T               2         AD vind (axial) at blade 1, node 12, m/s
         54    3.540127840388E-001                                                     T               2         AD vind (tangential) at blade 1, node 12, m/s
         55   -2.624180589468E+000                                                     T               2         AD vind (axial) at blade 1, node 13, m/s
         56    3.126455673218E-001                                                     T               2         AD vind (tangential) at blade 1, node 13, m/s
         57   -2.736253489572E+000                                                     T               2         AD vind (axial) at blade 1, node 14, m/s
         58    2.915480546021E-001                                                     T               2         AD vind (tangential) at blade 1, node 14, m/s
         59   -2.894670783841E+000                                                     T               2         AD vind (axial) at blade 1, node 15, m/s
         60    2.750494445065E-001                                                     T               2         AD vind (tangential) at blade 1, node 15, m/s
         61   -3.149999068278E+000                                                     T               2         AD vind (axial) at blade 1, node 16, m/s
         62    2.663477297467E-001                                                     T               2         AD vind (tangential) at blade 1, node 16, m/s
         63   -3.465355471657E+000                                                     T               2         AD vind (axial) at blade 1, node 17, m/s
         64    2.633701700477E-001                                                     T               2         AD vind (tangential) at blade 1, node 17, m/s
         65   -3.615193601349E+000                                                     T               2         AD vind (axial) at blade 1, node 18, m/s
         66    2.595526509459E-001                                                     T               2         AD vind (tangential) at blade 1, node 18, m/s
         67   -7.914273540499E+000                                                     T               2         AD vind (axial) at blade 1, node 19, m/s
         68    0.000000000000E+000                                                     T               2         AD vind (tangential) at blade 1, node 19, m/s
         69   -7.544213305761E+000                                                     T               2         AD vind (axial) at blade 2, node 1, m/s
         70    0.000000000000E+000                                                     T               2         AD vind (tangential) at blade 2, node 1, m/s
         71    0.000000000000E+000                                                     T               2         AD vind (axial) at blade 2, node 2, m/s
         72    0.000000000000E+000                                                     T               2         AD vind (tangential) at blade 2, node 2, m/s
         73    0.000000000000E+000                                                     T               2         AD vind (axial) at blade 2, node 3, m/s
         74    0.000000000000E+000                                                     T               2         AD vind (tangential) at blade 2, node 3, m/s
         75    0.000000000000E+000                                                     T               2         AD vind (axial) at blade 2, node 4, m/s
         76    0.000000000000E+000                                                     T               2         AD vind (tangential) at blade 2, node 4, m/s
         77   -2.002418256291E+000                                                     T               2         AD vind (axial) at blade 2, node 5, m/s
         78    9.402074684047E-001                                                     T               2         AD vind (tangential) at blade 2, node 5, m/s
         79   -2.164981414802E+000                                                     T               2         AD vind (axial) at blade 2, node 6, m/s
         80    7.606063062579E-001                                                     T               2         AD vind (tangential) at blade 2, node 6, m/s
         81   -1.989457132313E+000                                                     T               2         AD vind (axial) at blade 2, node 7, m/s
         82    5.835872361847E-001                                                     T               2         AD vind (tangential) at blade 2, node 7, m/s
         83   -1.977745884156E+000                                                     T               2         AD vind (axial) at blade 2, node 8, m/s
         84    4.868069246508E-001                                                     T               2         AD vind (tangential) at blade 2, node 8, m/s
         85   -2.213069843866E+000                                                     T               2         AD vind (axial) at blade 2, node 9, m/s
         86    4.491227438961E-001                                                     T               2         AD vind (tangential) at blade 2, node 9, m/s
         87   -2.286579723058E+000                                                     T               2         AD vind (axial) at blade 2, node 10, m/s
         88    4.012470833032E-001                                                     T               2         AD vind (tangential) at blade 2, node 10, m/s
         89   -2.565277028883E+000                                                     T               2         AD vind (axial) at blade 2, node 11, m/s
         90    3.803638214549E-001                                                     T               2         AD vind (tangential) at blade 2, node 11, m/s
         91   -2.762303916650E+000                                                     T               2         AD vind (axial) at blade 2, node 12, m/s
         92    3.548740014851E-001                                                     T               2         AD vind (tangential) at blade 2, node 12, m/s
         93   -2.616961642702E+000                                                     T               2         AD vind (axial) at blade 2, node 13, m/s
         94    3.138000645120E-001                                                     T               2         AD vind (tangential) at blade 2, node 13, m/s
         95   -2.728188603261E+000                                                     T               2         AD vind (axial) at blade 2, node 14, m/s
         96    2.929348701396E-001                                                     T               2         AD vind (tangential) at blade 2, node 14, m/s
         97   -2.886386596877E+000                                                     T               2         AD vind (axial) at blade 2, node 15, m/s
         98    2.766231128286E-001                                                     T               2         AD vind (tangential) at blade 2, node 15, m/s
         99   -3.140803159537E+000                                                     T               2         AD vind (axial) at blade 2, node 16, m/s
        100    2.680939478129E-001                                                     T               2         AD vind (tangential) at blade 2, node 16, m/s
        101   -3.455886920795E+000                                                     T               2         AD vind (axial) at blade 2, node 17, m/s
        102    2.651963027775E-001                                                     T               2         AD vind (tangential) at blade 2, node 17, m/s
        103   -3.607813496292E+000                                                     T               2         AD vind (axial) at blade 2, node 18, m/s
        104    2.610750888711E-001                                                     T               2         AD vind (tangential) at blade 2, node 18, m/s
        105   -7.904059737717E+000                                                     T               2         AD vind (axial) at blade 2, node 19, m/s
        106    0.000000000000E+000                                                     T               2         AD vind (tangential) at blade 2, node 19, m/s
        107   -7.782952761267E+000                                                     T               2         AD vind (axial) at blade 3, node 1, m/s
        108    0.000000000000E+000                                                     T               2         AD vind (tangential) at blade 3, node 1, m/s
        109    0.000000000000E+000                                                     T               2         AD vind (axial) at blade 3, node 2, m/s
        110    0.000000000000E+000                                                     T               2         AD vind (tangential) at blade 3, node 2, m/s
        111    0.000000000000E+000                                                     T               2         AD vind (axial) at blade 3, node 3, m/s
        112    0.000000000000E+000                                                     T               2         AD vind (tangential) at blade 3, node 3, m/s
        113    0.000000000000E+000                                                     T               2         AD vind (axial) at blade 3, node 4, m/s
        114    0.000000000000E+000                                                     T               2         AD vind (tangential) at blade 3, node 4, m/s
        115   -2.011327613976E+000                                                     T               2         AD vind (axial) at blade 3, node 5, m/s
        116    9.500355756377E-001                                                     T               2         AD vind (tangential) at blade 3, node 5, m/s
        117   -2.176304489327E+000                                                     T               2         AD vind (axial) at blade 3, node 6, m/s
        118    7.660512772535E-001                                                     T               2         AD vind (tangential) at blade 3, node 6, m/s
        119   -1.996940284209E+000                                                     T               2         AD vind (axial) at blade 3, node 7, m/s
        120    5.862408262021E-001                                                     T               2         AD vind (tangential) at blade 3, node 7, m/s
        121   -1.982961084425E+000                                                     T               2         AD vind (axial) at blade 3, node 8, m/s
        122    4.880801162174E-001                                                     T               2         AD vind (tangential) at blade 3, node 8, m/s
        123   -2.217963566122E+000                                                     T               2         AD vind (axial) at blade 3, node 9, m/s
        124    4.497210965016E-001                                                     T               2         AD vind (tangential) at blade 3, node 9, m/s
        125   -2.291689359053E+000                                                     T               2         AD vind (axial) at blade 3, node 10, m/s
        126    4.013729046386E-001                                                     T               2         AD vind (tangential) at blade 3, node 10, m/s
        127   -2.572989303529E+000                                                     T               2         AD vind (axial) at blade 3, node 11, m/s
        128    3.802389879290E-001                                                     T               2         AD vind (tangential) at blade 3, node 11, m/s
        129   -2.774079383213E+000                                                     T               2         AD vind (axial) at blade 3, node 12, m/s
        130    3.545680789151E-001                                                     T               2         AD vind (tangential) at blade 3, node 12, m/s
        131   -2.630821665826E+000                                                     T               2         AD vind (axial) at blade 3, node 13, m/s
        132    3.134361261282E-001                                                     T               2         AD vind (tangential) at blade 3, node 13, m/s
        133   -2.746608090685E+000                                                     T               2         AD vind (axial) at blade 3, node 14, m/s
        134    2.925228290051E-001                                                     T               2         AD vind (tangential) at blade 3, node 14, m/s
        135   -2.909888591142E+000                                                     T               2         AD vind (axial) at blade 3, node 15, m/s
        136    2.761306067639E-001                                                     T               2         AD vind (tangential) at blade 3, node 15, m/s
        137   -3.170605495869E+000                                                     T               2         AD vind (axial) at blade 3, node 16, m/s
        138    2.673783355108E-001                                                     T               2         AD vind (tangential) at blade 3, node 16, m/s
        139   -3.487013514438E+000                                                     T               2         AD vind (axial) at blade 3, node 17, m/s
        140    2.643722837345E-001                                                     T               2         AD vind (tangential) at blade 3, node 17, m/s
        141   -3.635266193256E+000                                                     T               2         AD vind (axial) at blade 3, node 18, m/s
        142    2.604255709820E-001                                                     T               2         AD vind (tangential) at blade 3, node 18, m/s
        143   -7.921619222033E+000                                                     T               2         AD vind (axial) at blade 3, node 19, m/s
        144    0.000000000000E+000                                                     T               2         AD vind (tangential) at blade 3, node 19, m/s
        145   -3.135362630186E+000                                                     T               2         AD First time derivative of vind (axial) at blade 1, node 1, m/s/s
        146    0.000000000000E+000                                                     T               2         AD First time derivative of vind (tangential) at blade 1, node 1, m/s/s
        147    0.000000000000E+000                                                     T               2         AD First time derivative of vind (axial) at blade 1, node 2, m/s/s
        148    0.000000000000E+000                                                     T               2         AD First time derivative of vind (tangential) at blade 1, node 2, m/s/s
        149    0.000000000000E+000                                                     T               2         AD First time derivative of vind (axial) at blade 1, node 3, m/s/s
        150    0.000000000000E+000                                                     T               2         AD First time derivative of vind (tangential) at blade 1, node 3, m/s/s
        151    0.000000000000E+000                                                     T               2         AD First time derivative of vind (axial) at blade 1, node 4, m/s/s
        152    0.000000000000E+000                                                     T               2         AD First time derivative of vind (tangential) at blade 1, node 4, m/s/s
        153   -8.071904423830E-001                                                     T               2         AD First time derivative of vind (axial) at blade 1, node 5, m/s/s
        154    3.812629362636E-001                                                     T               2         AD First time derivative of vind (tangential) at blade 1, node 5, m/s/s
        155   -8.722333764417E-001                                                     T               2         AD First time derivative of vind (axial) at blade 1, node 6, m/s/s
        156    3.070032192760E-001                                                     T               2         AD First time derivative of vind (tangential) at blade 1, node 6, m/s/s
        157   -7.997314771104E-001                                                     T               2         AD First time derivative of vind (axial) at blade 1, node 7, m/s/s
        158    2.347420721107E-001                                                     T               2         AD First time derivative of vind (tangential) at blade 1, node 7, m/s/s
        159   -7.936634264912E-001                                                     T               2         AD First time derivative of vind (axial) at blade 1, node 8, m/s/s
        160    1.953061945195E-001                                                     T               2         AD First time derivative of vind (tangential) at blade 1, node 8, m/s/s
        161   -8.873815799387E-001                                                     T               2         AD First time derivative of vind (axial) at blade 1, node 9, m/s/s
        162    1.798726204079E-001                                                     T               2         AD First time derivative of vind (tangential) at blade 1, node 9, m/s/s
        163   -9.164616056561E-001                                                     T               2         AD First time derivative of vind (axial) at blade 1, node 10, m/s/s
        164    1.604549219311E-001                                                     T               2         AD First time derivative of vind (tangential) at blade 1, node 10, m/s/s
        165   -1.028580887182E+000                                                     T               2         AD First time derivative of vind (axial) at blade 1, node 11, m/s/s
        166    1.519459814432E-001                                                     T               2         AD First time derivative of vind (tangential) at blade 1, node 11, m/s/s
        167   -1.108394244497E+000                                                     T               2         AD First time derivative of vind (axial) at blade 1, node 12, m/s/s
        168    1.416239182634E-001                                                     T               2         AD First time derivative of vind (tangential) at blade 1, node 12, m/s/s
        169   -1.050435451204E+000                                                     T               2         AD First time derivative of vind (axial) at blade 1, node 13, m/s/s
        170    1.251239466762E-001                                                     T               2         AD First time derivative of vind (tangential) at blade 1, node 13, m/s/s