
Linearized model: Predictions were generated on 28-Aug-2024 at 16:35:13 using OpenFAST, compiled on Aug 27 2024 at 21:42:35 as a 64-bit application using double precision at commit HEAD-HASH-NOTFOUND
 linked with  NWTC Subroutine Library; ElastoDyn; InflowWind; AeroDyn; ServoDyn

Description from the FAST input file: NREL 5.0 MW Baseline Wind Turbine (Onshore), Linearization with AeroDyn + ED

Simulation information:
   Simulation time:                   241.0100 s
   Rotor Speed:                         0.9987 rad/s
   Azimuth:                             4.1940 rad
   Wind Speed:                          8.0000 m/s
   Number of continuous states:       258
   Number of discrete states:           0
   Number of constraint states:         0
   Number of inputs:                   69
   Number of outputs:                   5
   Jacobians included in this file?    No

Order of continuous states:
   Row/Column Operating Point                                                   Rotating Frame? Derivative Order Description
   ---------- ---------------                                                   --------------- ---------------- -----------
          1    2.080458501414E-001                                                     F               2         ED 1st tower fore-aft bending mode DOF (internal DOF index = DOF_TFA1), m
          2    2.116783584751E-002                                                     F               2         ED 1st tower side-to-side bending mode DOF (internal DOF index = DOF_TSS1), m
          3   -7.390915961934E-005                                                     F               2         ED 2nd tower fore-aft bending mode DOF (internal DOF index = DOF_TFA2), m
          4    1.408770453996E-004                                                     F               2         ED 2nd tower side-to-side bending mode DOF (internal DOF index = DOF_TSS2), m
          5    2.621036160538E+000                                                     F               2         ED Variable speed generator DOF (internal DOF index = DOF_GeAz), rad
          6    2.177054900790E-003                                                     F               2         ED Drivetrain rotational-flexibility DOF (internal DOF index = DOF_DrTr), rad
          7    3.050054732909E+000                                                     T               2         ED 1st flapwise bending-mode DOF of blade 1 (internal DOF index = DOF_BF(1,1)), m
          8    3.172484775208E+000                                                     T               2         ED 1st flapwise bending-mode DOF of blade 2 (internal DOF index = DOF_BF(2,1)), m
          9    3.349942627201E+000                                                     T               2         ED 1st flapwise bending-mode DOF of blade 3 (internal DOF index = DOF_BF(3,1)), m
         10    5.028277145891E-001                                                     T               2         ED 1st edgewise bending-mode DOF of blade 1 (internal DOF index = DOF_BE(1,1)), m
         11    8.388290768178E-002                                                     T               2         ED 1st edgewise bending-mode DOF of blade 2 (internal DOF index = DOF_BE(2,1)), m
         12   -3.194638075554E-001                                                     T               2         ED 1st edgewise bending-mode DOF of blade 3 (internal DOF index = DOF_BE(3,1)), m
         13    8.605199363510E-002                                                     T               2         ED 2nd flapwise bending-mode DOF of blade 1 (internal DOF index = DOF_BF(1,2)), m
         14    5.622176102094E-002                                                     T               2         ED 2nd flapwise bending-mode DOF of blade 2 (internal DOF index = DOF_BF(2,2)), m
         15   -9.692152963586E-003                                                     T               2         ED 2nd flapwise bending-mode DOF of blade 3 (internal DOF index = DOF_BF(3,2)), m
         16    2.469459541741E-004                                                     F               2         ED First time derivative of 1st tower fore-aft bending mode DOF (internal DOF index = DOF_TFA1), m/s
         17   -4.239465420032E-004                                                     F               2         ED First time derivative of 1st tower side-to-side bending mode DOF (internal DOF index = DOF_TSS1), m/s
         18   -1.363263871684E-005                                                     F               2         ED First time derivative of 2nd tower fore-aft bending mode DOF (internal DOF index = DOF_TFA2), m/s
         19   -4.154953901263E-005                                                     F               2         ED First time derivative of 2nd tower side-to-side bending mode DOF (internal DOF index = DOF_TSS2), m/s
         20    9.988311255166E-001                                                     F               2         ED First time derivative of Variable speed generator DOF (internal DOF index = DOF_GeAz), rad/s
         21   -1.415242523396E-004                                                     F               2         ED First time derivative of Drivetrain rotational-flexibility DOF (internal DOF index = DOF_DrTr), rad/s
         22   -1.631643444458E-001                                                     T               2         ED First time derivative of 1st flapwise bending-mode DOF of blade 1 (internal DOF index = DOF_BF(1,1)), m/s
         23    2.133447841034E-001                                                     T               2         ED First time derivative of 1st flapwise bending-mode DOF of blade 2 (internal DOF index = DOF_BF(2,1)), m/s
         24   -9.461952437192E-002                                                     T               2         ED First time derivative of 1st flapwise bending-mode DOF of blade 3 (internal DOF index = DOF_BF(3,1)), m/s
         25    2.926506757723E-001                                                     T               2         ED First time derivative of 1st edgewise bending-mode DOF of blade 1 (internal DOF index = DOF_BE(1,1)), m/s
         26   -5.554548498156E-001                                                     T               2         ED First time derivative of 1st edgewise bending-mode DOF of blade 2 (internal DOF index = DOF_BE(2,1)), m/s
         27    2.841102550398E-001                                                     T               2         ED First time derivative of 1st edgewise bending-mode DOF of blade 3 (internal DOF index = DOF_BE(3,1)), m/s
         28    9.471195076574E-002                                                     T               2         ED First time derivative of 2nd flapwise bending-mode DOF of blade 1 (internal DOF index = DOF_BF(1,2)), m/s
         29   -6.885636503568E-002                                                     T               2         ED First time derivative of 2nd flapwise bending-mode DOF of blade 2 (internal DOF index = DOF_BF(2,2)), m/s
         30    1.971521121273E-002                                                     T               2         ED First time derivative of 2nd flapwise bending-mode DOF of blade 3 (internal DOF index = DOF_BF(3,2)), m/s
         31   -7.544392273869E+000                                                     T               2         AD vind (axial) at blade 1, node 1, m/s
         32    0.000000000000E+000                                                     T               2         AD vind (tangential) at blade 1, node 1, m/s
         33    0.000000000000E+000                                                     T               2         AD vind (axial) at blade 1, node 2, m/s
         34    0.000000000000E+000                                                     T               2         AD vind (tangential) at blade 1, node 2, m/s
         35    0.000000000000E+000                                                     T               2         AD vind (axial) at blade 1, node 3, m/s
         36    0.000000000000E+000                                                     T               2         AD vind (tangential) at blade 1, node 3, m/s
         37    0.000000000000E+000                                                     T               2         AD vind (axial) at blade 1, node 4, m/s
         38    0.000000000000E+000                                                     T               2         AD vind (tangential) at blade 1, node 4, m/s
         39   -2.002646371176E+000                                                     T               2         AD vind (axial) at blade 1, node 5, m/s
         40    9.401877051363E-001                                                     T               2         AD vind (tangential) at blade 1, node 5, m/s
         41   -2.165049349485E+000                                                     T               2         AD vind (axial) at blade 1, node 6, m/s
         42    7.605441883193E-001                                                     T               2         AD vind (tangential) at blade 1, node 6, m/s
         43   -1.989473022204E+000                                                     T               2         AD vind (axial) at blade 1, node 7, m/s
         44    5.835283925962E-001                                                     T               2         AD vind (tangential) at blade 1, node 7, m/s
         45   -1.977772881966E+000                                                     T               2         AD vind (axial) at blade 1, node 8, m/s
         46    4.867576646990E-001                                                     T               2         AD vind (tangential) at blade 1, node 8, m/s
         47   -2.213174054154E+000                                                     T               2         AD vind (axial) at blade 1, node 9, m/s
         48    4.490845156368E-001                                                     T               2         AD vind (tangential) at blade 1, node 9, m/s
         49   -2.286729837590E+000                                                     T               2         AD vind (axial) at blade 1, node 10, m/s
         50    4.012152099439E-001                                                     T               2         AD vind (tangential) at blade 1, node 10, m/s
         51   -2.565554215679E+000                                                     T               2         AD vind (axial) at blade 1, node 11, m/s
         52    3.803385495179E-001                                                     T               2         AD vind (tangential) at blade 1, node 11, m/s
         53   -2.762701471509E+000                                                     T               2         AD vind (axial) at blade 1, node 12, m/s
         54    3.548522502210E-001                                                     T               2         AD vind (tangential) at blade 1, node 12, m/s
         55   -2.617382713418E+000                                                     T               2         AD vind (axial) at blade 1, node 13, m/s
         56    3.137828523442E-001                                                     T               2         AD vind (tangential) at blade 1, node 13, m/s
         57   -2.728709240002E+000                                                     T               2         AD vind (axial) at blade 1, node 14, m/s
         58    2.929190637304E-001                                                     T               2         AD vind (tangential) at blade 1, node 14, m/s
         59   -2.887016218587E+000                                                     T               2         AD vind (axial) at blade 1, node 15, m/s
         60    2.766066102152E-001                                                     T               2         AD vind (tangential) at blade 1, node 15, m/s
         61   -3.141523623525E+000                                                     T               2         AD vind (axial) at blade 1, node 16, m/s
         62    2.680736245703E-001                                                     T               2         AD vind (tangential) at blade 1, node 16, m/s
         63   -3.456563340406E+000                                                     T               2         AD vind (axial) at blade 1, node 17, m/s
         64    2.651736960855E-001                                                     T               2         AD vind (tangential) at blade 1, node 17, m/s
         65   -3.608339974501E+000                                                     T               2         AD vind (axial) at blade 1, node 18, m/s
         66    2.610521039401E-001                                                     T               2         AD vind (tangential) at blade 1, node 18, m/s
         67   -7.904123186484E+000                                                     T               2         AD vind (axial) at blade 1, node 19, m/s
         68    0.000000000000E+000                                                     T               2         AD vind (tangential) at blade 1, node 19, m/s
         69   -7.783103059370E+000                                                     T               2         AD vind (axial) at blade 2, node 1, m/s
         70    0.000000000000E+000                                                     T               2         AD vind (tangential) at blade 2, node 1, m/s
         71    0.000000000000E+000                                                     T               2         AD vind (axial) at blade 2, node 2, m/s
         72    0.000000000000E+000                                                     T               2         AD vind (tangential) at blade 2, node 2, m/s
         73    0.000000000000E+000                                                     T               2         AD vind (axial) at blade 2, node 3, m/s
         74    0.000000000000E+000                                                     T               2         AD vind (tangential) at blade 2, node 3, m/s
         75    0.000000000000E+000                                                     T               2         AD vind (axial) at blade 2, node 4, m/s
         76    0.000000000000E+000                                                     T               2         AD vind (tangential) at blade 2, node 4, m/s
         77   -2.011369844601E+000                                                     T               2         AD vind (axial) at blade 2, node 5, m/s
         78    9.500377761176E-001                                                     T               2         AD vind (tangential) at blade 2, node 5, m/s
         79   -2.176311671184E+000                                                     T               2         AD vind (axial) at blade 2, node 6, m/s
         80    7.660281862525E-001                                                     T               2         AD vind (tangential) at blade 2, node 6, m/s
         81   -1.996940680726E+000                                                     T               2         AD vind (axial) at blade 2, node 7, m/s
         82    5.862125653937E-001                                                     T               2         AD vind (tangential) at blade 2, node 7, m/s
         83   -1.982964725077E+000                                                     T               2         AD vind (axial) at blade 2, node 8, m/s
         84    4.880508530705E-001                                                     T               2         AD vind (tangential) at blade 2, node 8, m/s
         85   -2.218016325417E+000                                                     T               2         AD vind (axial) at blade 2, node 9, m/s
         86    4.496949985487E-001                                                     T               2         AD vind (tangential) at blade 2, node 9, m/s
         87   -2.291772743569E+000                                                     T               2         AD vind (axial) at blade 2, node 10, m/s
         88    4.013480200462E-001                                                     T               2         AD vind (tangential) at blade 2, node 10, m/s
         89   -2.573170047371E+000                                                     T               2         AD vind (axial) at blade 2, node 11, m/s
         90    3.802168462618E-001                                                     T               2         AD vind (tangential) at blade 2, node 11, m/s
         91   -2.774355184719E+000                                                     T               2         AD vind (axial) at blade 2, node 12, m/s
         92    3.545466874362E-001                                                     T               2         AD vind (tangential) at blade 2, node 12, m/s
         93   -2.631136792920E+000                                                     T               2         AD vind (axial) at blade 2, node 13, m/s
         94    3.134181993264E-001                                                     T               2         AD vind (tangential) at blade 2, node 13, m/s
         95   -2.747016488523E+000                                                     T               2         AD vind (axial) at blade 2, node 14, m/s
         96    2.925054975072E-001                                                     T               2         AD vind (tangential) at blade 2, node 14, m/s
         97   -2.910399787336E+000                                                     T               2         AD vind (axial) at blade 2, node 15, m/s
         98    2.761123594061E-001                                                     T               2         AD vind (tangential) at blade 2, node 15, m/s
         99   -3.171207578299E+000                                                     T               2         AD vind (axial) at blade 2, node 16, m/s
        100    2.673565761881E-001                                                     T               2         AD vind (tangential) at blade 2, node 16, m/s
        101   -3.487545590362E+000                                                     T               2         AD vind (axial) at blade 2, node 17, m/s
        102    2.643509692611E-001                                                     T               2         AD vind (tangential) at blade 2, node 17, m/s
        103   -3.635673185091E+000                                                     T               2         AD vind (axial) at blade 2, node 18, m/s
        104    2.604054161932E-001                                                     T               2         AD vind (tangential) at blade 2, node 18, m/s
        105   -7.921663606997E+000                                                     T               2         AD vind (axial) at blade 2, node 19, m/s
        106    0.000000000000E+000                                                     T               2         AD vind (tangential) at blade 2, node 19, m/s
        107   -7.867382576985E+000                                                     T               2         AD vind (axial) at blade 3, node 1, m/s
        108    0.000000000000E+000                                                     T               2         AD vind (tangential) at blade 3, node 1, m/s
        109    0.000000000000E+000                                                     T               2         AD vind (axial) at blade 3, node 2, m/s
        110    0.000000000000E+000                                                     T               2         AD vind (tangential) at blade 3, node 2, m/s
        111    0.000000000000E+000                                                     T               2         AD vind (axial) at blade 3, node 3, m/s
        112    0.000000000000E+000                                                     T               2         AD vind (tangential) at blade 3, node 3, m/s
        113    0.000000000000E+000                                                     T               2         AD vind (axial) at blade 3, node 4, m/s
        114    0.000000000000E+000                                                     T               2         AD vind (tangential) at blade 3, node 4, m/s
        115   -2.020251037808E+000                                                     T               2         AD vind (axial) at blade 3, node 5, m/s
        116    9.552446627627E-001                                                     T               2         AD vind (tangential) at blade 3, node 5, m/s
        117   -2.183352013316E+000                                                     T               2         AD vind (axial) at blade 3, node 6, m/s
        118    7.689016872805E-001                                                     T               2         AD vind (tangential) at blade 3, node 6, m/s
        119   -2.001252388749E+000                                                     T               2         AD vind (axial) at blade 3, node 7, m/s
        120    5.876474785731E-001                                                     T               2         AD vind (tangential) at blade 3, node 7, m/s
        121   -1.985477609934E+000                                                     T               2         AD vind (axial) at blade 3, node 8, m/s
        122    4.887329084016E-001                                                     T               2         AD vind (tangential) at blade 3, node 8, m/s
        123   -2.219327356243E+000                                                     T               2         AD vind (axial) at blade 3, node 9, m/s
        124    4.499649599471E-001                                                     T               2         AD vind (tangential) at blade 3, node 9, m/s
        125   -2.291576609610E+000                                                     T               2         AD vind (axial) at blade 3, node 10, m/s
        126    4.012752332291E-001                                                     T               2         AD vind (tangential) at blade 3, node 10, m/s
        127   -2.571370991659E+000                                                     T               2         AD vind (axial) at blade 3, node 11, m/s
        128    3.798948139810E-001                                                     T               2         AD vind (tangential) at blade 3, node 11, m/s
        129   -2.770262439711E+000                                                     T               2         AD vind (axial) at blade 3, node 12, m/s
        130    3.539873761642E-001                                                     T               2         AD vind (tangential) at blade 3, node 12, m/s
        131   -2.624552423760E+000                                                     T               2         AD vind (axial) at blade 3, node 13, m/s
        132    3.126237755979E-001                                                     T               2         AD vind (tangential) at blade 3, node 13, m/s
        133   -2.736723185695E+000                                                     T               2         AD vind (axial) at blade 3, node 14, m/s
        134    2.915258246857E-001                                                     T               2         AD vind (tangential) at blade 3, node 14, m/s
        135   -2.895250557083E+000                                                     T               2         AD vind (axial) at blade 3, node 15, m/s
        136    2.750240997019E-001                                                     T               2         AD vind (tangential) at blade 3, node 15, m/s
        137   -3.150686004900E+000                                                     T               2         AD vind (axial) at blade 3, node 16, m/s
        138    2.663149029692E-001                                                     T               2         AD vind (tangential) at blade 3, node 16, m/s
        139   -3.465954389255E+000                                                     T               2         AD vind (axial) at blade 3, node 17, m/s
        140    2.633338657495E-001                                                     T               2         AD vind (tangential) at blade 3, node 17, m/s
        141   -3.615603709408E+000                                                     T               2         AD vind (axial) at blade 3, node 18, m/s
        142    2.595124607353E-001                                                     T               2         AD vind (tangential) at blade 3, node 18, m/s
        143   -7.913888906033E+000                                                     T               2         AD vind (axial) at blade 3, node 19, m/s
        144    0.000000000000E+000                                                     T               2         AD vind (tangential) at blade 3, node 19, m/s
        145   -3.040012329063E+000                                                     T               2         AD First time derivative of vind (axial) at blade 1, node 1, m/s/s
        146    0.000000000000E+000                                                     T               2         AD First time derivative of vind (tangential) at blade 1, node 1, m/s/s
        147    0.000000000000E+000                                                     T               2         AD First time derivative of vind (axial) at blade 1, node 2, m/s/s
        148    0.000000000000E+000                                                     T               2         AD First time derivative of vind (tangential) at blade 1, node 2, m/s/s
        149    0.000000000000E+000                                                     T               2         AD First time derivative of vind (axial) at blade 1, node 3, m/s/s
        150    0.000000000000E+000                                                     T               2         AD First time derivative of vind (tangential) at blade 1, node 3, m/s/s
        151    0.000000000000E+000                                                     T               2         AD First time derivative of vind (axial) at blade 1, node 4, m/s/s
        152    0.000000000000E+000                                                     T               2         AD First time derivative of vind (tangential) at blade 1, node 4, m/s/s
        153   -8.030952485673E-001                                                     T               2         AD First time derivative of vind (axial) at blade 1, node 5, m/s/s
        154    3.767248342394E-001                                                     T               2         AD First time derivative of vind (tangential) at blade 1, node 5, m/s/s
        155   -8.669453041919E-001                                                     T               2         AD First time derivative of vind (axial) at blade 1, node 6, m/s/s
        156    3.043588525508E-001                                                     T               2         AD First time derivative of vind (tangential) at blade 1, node 6, m/s/s
        157   -7.963008689369E-001                                                     T               2         AD First time derivative of vind (axial) at blade 1, node 7, m/s/s
        158    2.334301552454E-001                                                     T               2         AD First time derivative of vind (tangential) at blade 1, node 7, m/s/s
        159   -7.914459797244E-001                                                     T               2         AD First time derivative of vind (axial) at blade 1, node 8, m/s/s
        160    1.946656892025E-001                                                     T               2         AD First time derivative of vind (tangential) at blade 1, node 8, m/s/s
        161   -8.856857063098E-001                                                     T               2         AD First time derivative of vind (axial) at blade 1, node 9, m/s/s
        162    1.795744958201E-001                                                     T               2         AD First time derivative of vind (tangential) at blade 1, node 9, m/s/s
        163   -9.151177308442E-001                                                     T               2         AD First time derivative of vind (axial) at blade 1, node 10, m/s/s
        164    1.603963755740E-001                                                     T               2         AD First time derivative of vind (tangential) at blade 1, node 10, m/s/s
        165   -1.026962675811E+000                                                     T               2         AD First time derivative of vind (axial) at blade 1, node 11, m/s/s
        166    1.520283068746E-001                                                     T               2         AD First time derivative of vind (tangential) at blade 1, node 11, m/s/s
        167   -1.106198164780E+000                                                     T               2         AD First time derivative of vind (axial) at blade 1, node 12, m/s/s
        168    1.418135858659E-001                                                     T               2         AD First time derivative of vind (tangential) at blade 1, node 12, m/s/s
        169   -1.048147207822E+000                                                     T               2         AD First time derivative of vind (axial) at blade 1, node 13, m/s/s
        170    1.253790949724E-001                                                     T               2         AD First time derivative of vind (tangential) at blade 1, node 13, m/s/s