
Linearized model: Predictions were generated on 29-Aug-2024 at 16:02:27 using OpenFAST, compiled on Aug 29 2024 at 15:46:31 as a 64-bit application using double precision at commit -128-NOTFOUND
 linked with  NWTC Subroutine Library; ElastoDyn; InflowWind; AeroDyn

Description from the FAST input file: One blade, 4 aero-stations, Linearization with continuous-state aerodynamic modules

Simulation information:
   Simulation time:                     1.1000 s
   Rotor Speed:                         1.2671 rad/s
   Azimuth:                             1.3938 rad
   Wind Speed:                         13.0000 m/s
   Number of continuous states:        30
   Number of discrete states:           0
   Number of constraint states:         0
   Number of inputs:                   14
   Number of outputs:                  31
   Jacobians included in this file?    No

Order of continuous states:
   Row/Column Operating Point                                                   Rotating Frame? Derivative Order Description
   ---------- ---------------                                                   --------------- ---------------- -----------
          1    6.242703524074E+000                                                     T               2         ED 1st flapwise bending-mode DOF of blade 1 (internal DOF index = DOF_BF(1,1)), m
          2   -1.001124195282E+001                                                     T               2         ED First time derivative of 1st flapwise bending-mode DOF of blade 1 (internal DOF index = DOF_BF(1,1)), m/s
          3   -1.303013002991E+001                                                     T               2         AD vind (axial) at blade 1, node 1, m/s
          4    0.000000000000E+000                                                     T               2         AD vind (tangential) at blade 1, node 1, m/s
          5   -8.932151726946E-001                                                     T               2         AD vind (axial) at blade 1, node 2, m/s
          6    3.691072118892E-001                                                     T               2         AD vind (tangential) at blade 1, node 2, m/s
          7   -1.265421493514E+000                                                     T               2         AD vind (axial) at blade 1, node 3, m/s
          8    2.846798286406E-001                                                     T               2         AD vind (tangential) at blade 1, node 3, m/s
          9   -1.411109167001E+001                                                     T               2         AD vind (axial) at blade 1, node 4, m/s
         10    0.000000000000E+000                                                     T               2         AD vind (tangential) at blade 1, node 4, m/s
         11   -5.212116040265E+000                                                     T               2         AD First time derivative of vind (axial) at blade 1, node 1, m/s/s
         12    0.000000000000E+000                                                     T               2         AD First time derivative of vind (tangential) at blade 1, node 1, m/s/s
         13   -3.570816651725E-001                                                     T               2         AD First time derivative of vind (axial) at blade 1, node 2, m/s/s
         14    1.476643219155E-001                                                     T               2         AD First time derivative of vind (tangential) at blade 1, node 2, m/s/s
         15   -5.061856216268E-001                                                     T               2         AD First time derivative of vind (axial) at blade 1, node 3, m/s/s
         16    1.142655880963E-001                                                     T               2         AD First time derivative of vind (tangential) at blade 1, node 3, m/s/s
         17   -5.749229755707E+000                                                     T               2         AD First time derivative of vind (axial) at blade 1, node 4, m/s/s
         18    0.000000000000E+000                                                     T               2         AD First time derivative of vind (tangential) at blade 1, node 4, m/s/s
         19    6.457027078395E-002                                                     T               1         AD x1 blade 1, node 2, rad
         20    1.590302895744E-001                                                     T               1         AD x2 blade 1, node 2, rad
         21    2.273912780619E+000                                                     T               1         AD x3 blade 1, node 2, -
         22    3.775991160346E-001                                                     T               1         AD x4 blade 1, node 2, -
         23    5.502534195065E-002                                                     T               1         AD x1 blade 1, node 3, rad
         24    1.487209894544E-001                                                     T               1         AD x2 blade 1, node 3, rad
         25    2.116023400009E+000                                                     T               1         AD x3 blade 1, node 3, -
         26    4.530786304963E-001                                                     T               1         AD x4 blade 1, node 3, -
         27   -9.112852665224E-004                                                     T               1         AD x1 blade 1, node 4, rad
         28   -1.940542833558E-003                                                     T               1         AD x2 blade 1, node 4, rad
         29    5.788735167351E-001                                                     T               1         AD x3 blade 1, node 4, -
         30    5.201152523924E-001                                                     T               1         AD x4 blade 1, node 4, -

Order of continuous state derivatives:
   Row/Column Operating Point                                                   Rotating Frame? Derivative Order Description
   ---------- ---------------                                                   --------------- ---------------- -----------
          1   -1.001124195282E+001                                                     T               2         First time derivative of ED 1st flapwise bending-mode DOF of blade 1 (internal DOF index = DOF_BF(1,1)), m/s
          2   -6.282750035587E+000                                                     T               2         First time derivative of ED First time derivative of 1st flapwise bending-mode DOF of blade 1 (internal DOF index = DOF_BF(1,1)), m/s/s
          3    1.160448901599E-003                                                     T               2         First time derivative of AD vind (axial) at blade 1, node 1, m/s/s
          4    0.000000000000E+000                                                     T               2         First time derivative of AD vind (tangential) at blade 1, node 1, m/s/s
          5   -6.153017135686E-004                                                     T               2         First time derivative of AD vind (axial) at blade 1, node 2, m/s/s
          6    1.569095377754E-004                                                     T               2         First time derivative of AD vind (tangential) at blade 1, node 2, m/s/s
          7    1.722779194102E-003                                                     T               2         First time derivative of AD vind (axial) at blade 1, node 3, m/s/s
          8    1.076022222185E-003                                                     T               2         First time derivative of AD vind (tangential) at blade 1, node 3, m/s/s
          9   -4.148515628133E-001                                                     T               2         First time derivative of AD vind (axial) at blade 1, node 4, m/s/s
         10    0.000000000000E+000                                                     T               2         First time derivative of AD vind (tangential) at blade 1, node 4, m/s/s
         11    3.026698257929E-004                                                     T               2         First time derivative of AD First time derivative of vind (axial) at blade 1, node 1, m/s/s/s
         12    0.000000000000E+000                                                     T               2         First time derivative of AD First time derivative of vind (tangential) at blade 1, node 1, m/s/s/s
         13   -1.478400872795E-004                                                     T               2         First time derivative of AD First time derivative of vind (axial) at blade 1, node 2, m/s/s/s
         14    3.647500384419E-005                                                     T               2         First time derivative of AD First time derivative of vind (tangential) at blade 1, node 2, m/s/s/s
         15    2.988795696635E-004                                                     T               2         First time derivative of AD First time derivative of vind (axial) at blade 1, node 3, m/s/s/s
         16    1.799375651945E-004                                                     T               2         First time derivative of AD First time derivative of vind (tangential) at blade 1, node 3, m/s/s/s
         17   -3.420725064874E-002                                                     T               2         First time derivative of AD First time derivative of vind (axial) at blade 1, node 4, m/s/s/s
         18    0.000000000000E+000                                                     T               2         First time derivative of AD First time derivative of vind (tangential) at blade 1, node 4, m/s/s/s
         19    1.077379045928E-002                                                     T               1         First time derivative of AD x1 blade 1, node 2, rad/s
         20    2.355936276069E-002                                                     T               1         First time derivative of AD x2 blade 1, node 2, rad/s
         21    3.888970068337E-001                                                     T               1         First time derivative of AD x3 blade 1, node 2, -/s
         22   -1.358353970369E-001                                                     T               1         First time derivative of AD x4 blade 1, node 2, -/s
         23    5.557402047715E-002                                                     T               1         First time derivative of AD x1 blade 1, node 3, rad/s
         24    6.688357642027E-002                                                     T               1         First time derivative of AD x2 blade 1, node 3, rad/s
         25    1.231372374057E+000                                                     T               1         First time derivative of AD x3 blade 1, node 3, -/s
         26   -5.735885906549E-001                                                     T               1         First time derivative of AD x4 blade 1, node 3, -/s
         27    1.702065308524E-003                                                     T               1         First time derivative of AD x1 blade 1, node 4, rad/s
         28    4.042922985950E-003                                                     T               1         First time derivative of AD x2 blade 1, node 4, rad/s
         29    3.108360419628E-002                                                     T               1         First time derivative of AD x3 blade 1, node 4, -/s
         30    1.205527229847E-002                                                     T               1         First time derivative of AD x4 blade 1, node 4, -/s

Order of inputs:
     Column   Operating Point                                                   Rotating Frame? Derivative Order Description
   ---------- ---------------                                                   --------------- ---------------- -----------
          1    1.300000000000E+001                                                     F               0         IfW Extended input: horizontal wind speed (steady/uniform wind) (hub), m/s
          2    2.000000000000E-001                                                     F               0         IfW Extended input: vertical power-law shear exponent (hub), -
          3    0.000000000000E+000                                                     F               0         IfW Extended input: propagation direction (hub), rad
          4    0.000000000000E+000                                                     T               0         ED Blade 1 pitch command, rad
          5    0.000000000000E+000                                                     F               0         ED Yaw moment, Nm
          6    0.000000000000E+000                                                     F               0         ED Generator torque, Nm
          7    0.000000000000E+000                                                     F               0         ED Extended input: collective blade-pitch command, rad
          8    0.000000000000E+000                                                     T               0         AD User property on blade 1, node 1, -
          9    0.000000000000E+000                                                     T               0         AD User property on blade 1, node 2, -
         10    0.000000000000E+000                                                     T               0         AD User property on blade 1, node 3, -
         11    0.000000000000E+000                                                     T               0         AD User property on blade 1, node 4, -
         12    1.300000000000E+001                                                     F               0         AD Extended input: horizontal wind speed (steady/uniform wind), m/s
         13    2.000000000000E-001                                                     F               0         AD Extended input: vertical power-law shear exponent, -
         14    0.000000000000E+000                                                     F               0         AD Extended input: propagation direction, rad

Order of outputs:
        Row   Operating Point                                                   Rotating Frame? Derivative Order Description
   ---------- ---------------                                                   --------------- ---------------- -----------
          1    1.300000000000E+001                                                     F               0         IfW Wind1VelX, (m/s)
          2   -0.000000000000E+000                                                     F               0         IfW Wind1VelY, (m/s)
          3    0.000000000000E+000                                                     F               0         IfW Wind1VelZ, (m/s)
          4    3.203207746202E+002                                                     F               0         ED TwrBsFxt, (kN)
          5    3.176784617970E+004                                                     F               0         ED TwrBsMyt, (kN-m)
          6    6.242703524074E+000                                                     F               0         ED Q_B1F1, (m)
          7    8.790291605247E-002                                                     F               0         AD RtAeroCp, (-)
          8    1.386440319181E-001                                                     F               0         AD RtAeroCt, (-)
          9    1.511353171743E+000                                                     T               0         AD B1N1Cl, (-)
         10    7.502513481158E-002                                                     T               0         AD B1N1AxInd, (-)
         11    5.011489224170E-003                                                     T               0         AD B1N1TnInd, (-)
         12    0.000000000000E+000                                                     T               0         AD AB1N001UA_Flag, (-)
         13    1.000000000000E+000                                                     T               0         AD AB1N002UA_Flag, (-)
         14    1.000000000000E+000                                                     T               0         AD AB1N003UA_Flag, (-)
         15    1.000000000000E+000                                                     T               0         AD AB1N004UA_Flag, (-)
         16    0.000000000000E+000                                                     T               0         AD AB1N001UA_x1, (rad)
         17    6.457027078395E-002                                                     T               0         AD AB1N002UA_x1, (rad)
         18    5.502534195065E-002                                                     T               0         AD AB1N003UA_x1, (rad)
         19   -9.112852665224E-004                                                     T               0         AD AB1N004UA_x1, (rad)
         20    0.000000000000E+000                                                     T               0         AD AB1N001UA_x2, (rad)
         21    1.590302895744E-001                                                     T               0         AD AB1N002UA_x2, (rad)
         22    1.487209894544E-001                                                     T               0         AD AB1N003UA_x2, (rad)
         23   -1.940542833558E-003                                                     T               0         AD AB1N004UA_x2, (rad)
         24    0.000000000000E+000                                                     T               0         AD AB1N001UA_x3, (-)
         25    2.273912780619E+000                                                     T               0         AD AB1N002UA_x3, (-)
         26    2.116023400009E+000                                                     T               0         AD AB1N003UA_x3, (-)
         27    5.788735167351E-001                                                     T               0         AD AB1N004UA_x3, (-)
         28    0.000000000000E+000                                                     T               0         AD AB1N001UA_x4, (-)
         29    3.775991160346E-001                                                     T               0         AD AB1N002UA_x4, (-)
         30    4.530786304963E-001                                                     T               0         AD AB1N003UA_x4, (-)
         31    5.201152523924E-001                                                     T               0         AD AB1N004UA_x4, (-)


Linearized state matrices:

A: 30 x 30
    0.000000000000E+000  1.000000000000E+000  0.000000000000E+000  0.000000000000E+000  0.000000000000E+000  0.000000000000E+000  0.000000000000E+000  0.000000000000E+000  0.000000000000E+000  0.000000000000E+000  0.000000000000E+000  0.000000000000E+000  0.000000000000E+000  0.000000000000E+000  0.000000000000E+000  0.000000000000E+000  0.000000000000E+000  0.000000000000E+000  0.000000000000E+000  0.000000000000E+000  0.000000000000E+000  0.000000000000E+000  0.000000000000E+000  0.000000000000E+000  0.000000000000E+000  0.000000000000E+000  0.000000000000E+000  0.000000000000E+000  0.000000000000E+000  0.000000000000E+000
   -1.600534671644E+001 -4.945835628403E-002  0.000000000000E+000  0.000000000000E+000  1.862487467095E-001  4.170826898304E-001  6.221089893798E-001  2.022234859882E+000  0.000000000000E+000  0.000000000000E+000  0.000000000000E+000  0.000000000000E+000  0.000000000000E+000  0.000000000000E+000  0.000000000000E+000  0.000000000000E+000  0.000000000000E+000  0.000000000000E+000  2.217466806617E+001  2.217466806617E+001  0.000000000000E+000  6.750351755396E+000  1.989627931683E+002  1.989627931683E+002  0.000000000000E+000  4.979443071200E+001  1.771281177532E+002  1.771281177532E+002  0.000000000000E+000  9.402360618947E+000
    4.213430713906E-020  1.222722744668E-021 -2.565071974878E-002  0.000000000000E+000  2.075781143926E-023  4.652049800262E-023 -3.265007421388E-022 -1.063031374419E-021  0.000000000000E+000  0.000000000000E+000  2.565071974878E-002  0.000000000000E+000  0.000000000000E+000  0.000000000000E+000  0.000000000000E+000  0.000000000000E+000  0.000000000000E+000  0.000000000000E+000  2.411502124558E-021  2.411502124558E-021  0.000000000000E+000  7.366140008513E-022 -1.039150543275E-019 -1.039150543275E-019  0.000000000000E+000 -2.610025168112E-020 -4.888071972156E-020 -4.888071972156E-020  0.000000000000E+000 -2.688224649803E-021
    0.000000000000E+000  0.000000000000E+000  0.000000000000E+000 -2.565071974878E-002  0.000000000000E+000  0.000000000000E+000  0.000000000000E+000  0.000000000000E+000  0.000000000000E+000  0.000000000000E+000  0.000000000000E+000  2.565071974878E-002  0.000000000000E+000  0.000000000000E+000  0.000000000000E+000  0.000000000000E+000  0.000000000000E+000  0.000000000000E+000  0.000000000000E+000  0.000000000000E+000  0.000000000000E+000  0.000000000000E+000  0.000000000000E+000  0.000000000000E+000  0.000000000000E+000  0.000000000000E+000  0.000000000000E+000  0.000000000000E+000  0.000000000000E+000  0.000000000000E+000
   -9.738705929775E-006 -7.854404492674E-005  0.000000000000E+000  0.000000000000E+000 -2.840072093401E-002 -6.315592081408E-021 -3.423047875054E-021 -1.105855495047E-020  0.000000000000E+000  0.000000000000E+000  0.000000000000E+000  0.000000000000E+000  2.840072093401E-002  0.000000000000E+000  0.000000000000E+000  0.000000000000E+000  0.000000000000E+000  0.000000000000E+000 -3.301944787335E-019 -3.301944787335E-019  0.000000000000E+000 -1.013931954119E-019 -1.117549248035E-018 -1.117549248035E-018  0.000000000000E+000 -2.766387265461E-019  1.128996071731E-018  1.128996071731E-018  0.000000000000E+000  6.235364867697E-020
   -2.627303335274E-006 -1.517254620161E-005  0.000000000000E+000  0.000000000000E+000  1.041183501518E-021 -2.840072093401E-002  1.206222606851E-021  3.895282106187E-021  0.000000000000E+000  0.000000000000E+000  0.000000000000E+000  0.000000000000E+000  0.000000000000E+000  2.840072093401E-002  0.000000000000E+000  0.000000000000E+000  0.000000000000E+000  0.000000000000E+000  1.220710543584E-019  1.220710543584E-019  0.000000000000E+000  3.748407673162E-020  3.943145349316E-019  3.943145349316E-019  0.000000000000E+000  9.753779856338E-020 -4.457310076104E-019 -4.457310076104E-019  0.000000000000E+000 -2.453278974609E-020
   -5.462354849424E-005 -3.434428082500E-004  0.000000000000E+000  0.000000000000E+000 -1.244665720852E-020 -2.791509767597E-020 -3.846401513958E-002 -5.129383720565E-020  0.000000000000E+000  0.000000000000E+000  0.000000000000E+000  0.000000000000E+000  0.000000000000E+000  0.000000000000E+000  3.846401513958E-002  0.000000000000E+000  0.000000000000E+000  0.000000000000E+000 -1.461165990371E-018 -1.461165990371E-018  0.000000000000E+000 -4.483250213745E-019 -5.193440641785E-018 -5.193440641785E-018  0.000000000000E+000 -1.283222839813E-018  5.701676002132E-019  5.701676002132E-019  0.000000000000E+000  3.686051764548E-020
   -1.428326516357E-005 -1.201718545472E-004  0.000000000000E+000  0.000000000000E+000  3.325544343927E-021  7.457545323354E-021  4.934000710882E-021 -3.846401513958E-002  0.000000000000E+000  0.000000000000E+000  0.000000000000E+000  0.000000000000E+000  0.000000000000E+000  0.000000000000E+000  0.000000000000E+000  3.846401513958E-002  0.000000000000E+000  0.000000000000E+000  3.908158095543E-019  3.908158095543E-019  0.000000000000E+000  1.198351860927E-019  1.603264270159E-018  1.603264270159E-018  0.000000000000E+000  3.976292185493E-019 -2.097170445134E-020 -2.097170445134E-020  0.000000000000E+000 -2.558817874656E-021
    8.621372394380E-003  4.789508187853E-002  0.000000000000E+000  0.000000000000E+000 -1.732453086364E-019 -3.887603999969E-019 -3.823620992662E-019 -1.240342875307E-018 -7.692307692308E-002  0.000000000000E+000  0.000000000000E+000  0.000000000000E+000  0.000000000000E+000  0.000000000000E+000  0.000000000000E+000  0.000000000000E+000  7.692307692308E-002  0.000000000000E+000 -2.022157101313E-017 -2.022157101313E-017  0.000000000000E+000 -6.222115874321E-018 -1.231726412617E-016 -1.231726412617E-016  0.000000000000E+000 -3.072073437983E-017  7.522729091159E-017  7.522729091159E-017  0.000000000000E+000  4.079489923920E-018
    0.000000000000E+000  0.000000000000E+000  0.000000000000E+000  0.000000000000E+000  0.000000000000E+000  0.000000000000E+000  0.000000000000E+000  0.000000000000E+000  0.000000000000E+000 -7.692307692308E-002  0.000000000000E+000  0.000000000000E+000  0.000000000000E+000  0.000000000000E+000  0.000000000000E+000  0.000000000000E+000  0.000000000000E+000  7.692307692308E-002  0.000000000000E+000  0.000000000000E+000  0.000000000000E+000  0.000000000000E+000  0.000000000000E+000  0.000000000000E+000  0.000000000000E+000  0.000000000000E+000  0.000000000000E+000  0.000000000000E+000  0.000000000000E+000  0.000000000000E+000
    1.095077969266E-020  3.177877675283E-022  0.000000000000E+000  0.000000000000E+000  5.394991288739E-024  1.209075832519E-023 -8.485811063304E-023 -2.762837027136E-022  0.000000000000E+000  0.000000000000E+000 -1.000000000000E-002  0.000000000000E+000  0.000000000000E+000  0.000000000000E+000  0.000000000000E+000  0.000000000000E+000  0.000000000000E+000  0.000000000000E+000  6.267535955241E-022  6.267535955241E-022  0.000000000000E+000  1.914472597164E-022 -2.700770331729E-020 -2.700770331729E-020  0.000000000000E+000 -6.783500797572E-021 -1.270418405417E-020 -1.270418405417E-020  0.000000000000E+000 -6.986742610294E-022
    0.000000000000E+000  0.000000000000E+000  0.000000000000E+000  0.000000000000E+000  0.000000000000E+000  0.000000000000E+000  0.000000000000E+000  0.000000000000E+000  0.000000000000E+000  0.000000000000E+000  0.000000000000E+000 -1.000000000000E-002  0.000000000000E+000  0.000000000000E+000  0.000000000000E+000  0.000000000000E+000  0.000000000000E+000  0.000000000000E+000  0.000000000000E+000  0.000000000000E+000  0.000000000000E+000  0.000000000000E+000  0.000000000000E+000  0.000000000000E+000  0.000000000000E+000  0.000000000000E+000  0.000000000000E+000  0.000000000000E+000  0.000000000000E+000  0.000000000000E+000
   -2.286023173473E-006 -1.843710120581E-005  0.000000000000E+000  0.000000000000E+000 -6.609099918571E-022 -1.482495719289E-021 -8.035119678845E-022 -2.595839022576E-021  0.000000000000E+000  0.000000000000E+000  0.000000000000E+000  0.000000000000E+000 -1.000000000000E-002  0.000000000000E+000  0.000000000000E+000  0.000000000000E+000  0.000000000000E+000  0.000000000000E+000 -7.750847346461E-020 -7.750847346461E-020  0.000000000000E+000 -2.380061540161E-020 -2.623288450157E-019 -2.623288450157E-019  0.000000000000E+000 -6.493701977704E-020  2.650158246227E-019  2.650158246227E-019  0.000000000000E+000  1.463663518069E-020
   -6.167222166362E-007 -3.561540154060E-006  0.000000000000E+000  0.000000000000E+000  2.444030684849E-022  5.482233204820E-022  2.831436590766E-022  9.143622598495E-022  0.000000000000E+000  0.000000000000E+000  0.000000000000E+000  0.000000000000E+000  0.000000000000E+000 -1.000000000000E-002  0.000000000000E+000  0.000000000000E+000  0.000000000000E+000  0.000000000000E+000  2.865444968622E-020  2.865444968622E-020  0.000000000000E+000  8.798855686026E-021  9.255974777255E-020  9.255974777255E-020  0.000000000000E+000  2.289561564065E-020 -1.046290359192E-019 -1.046290359192E-019  0.000000000000E+000 -5.758724647188E-021
   -9.467472094114E-006 -5.952625365182E-005  0.000000000000E+000  0.000000000000E+000 -2.157281667614E-021 -4.838305374459E-021 -2.753558511573E-021 -8.890359299812E-021  0.000000000000E+000  0.000000000000E+000  0.000000000000E+000  0.000000000000E+000  0.000000000000E+000  0.000000000000E+000 -1.000000000000E-002  0.000000000000E+000  0.000000000000E+000  0.000000000000E+000 -2.532524638191E-019 -2.532524638191E-019  0.000000000000E+000 -7.770466668608E-020 -9.001384147301E-019 -9.001384147301E-019  0.000000000000E+000 -2.224109703848E-019  9.882268715216E-020  9.882268715216E-020  0.000000000000E+000  6.388744997407E-021
   -2.475606548395E-006 -2.082844690222E-005  0.000000000000E+000  0.000000000000E+000  5.763905704000E-022  1.292557956884E-021  8.551717222754E-022  2.766382111997E-021  0.000000000000E+000  0.000000000000E+000  0.000000000000E+000  0.000000000000E+000  0.000000000000E+000  0.000000000000E+000  0.000000000000E+000 -1.000000000000E-002  0.000000000000E+000  0.000000000000E+000  6.773704515524E-020  6.773704515524E-020  0.000000000000E+000  2.077009479429E-020  2.778812463789E-019  2.778812463789E-019  0.000000000000E+000  6.891796000431E-020 -3.634861376317E-021 -3.634861376317E-021  0.000000000000E+000 -4.434998730408E-022
    7.471856075129E-004  4.150907096140E-003  0.000000000000E+000  0.000000000000E+000 -1.501459341515E-020 -3.369256799973E-020 -3.313804860307E-020 -1.074963825266E-019  0.000000000000E+000  0.000000000000E+000  0.000000000000E+000  0.000000000000E+000  0.000000000000E+000  0.000000000000E+000  0.000000000000E+000  0.000000000000E+000 -1.000000000000E-002  0.000000000000E+000 -1.752536154472E-018 -1.752536154472E-018  0.000000000000E+000 -5.392500424411E-019 -1.067496224268E-017 -1.067496224268E-017  0.000000000000E+000 -2.662463646251E-018  6.519698545671E-018  6.519698545671E-018  0.000000000000E+000  3.535557934064E-019