
Linearized model: Predictions were generated on 28-Aug-2024 at 16:34:58 using OpenFAST, compiled on Aug 27 2024 at 21:42:35 as a 64-bit application using double precision at commit HEAD-HASH-NOTFOUND
 linked with  NWTC Subroutine Library; ElastoDyn; InflowWind; AeroDyn; ServoDyn

Description from the FAST input file: NREL 5.0 MW Baseline Wind Turbine (Onshore), Linearization with AeroDyn + ED

Simulation information:
   Simulation time:                     1.0000 s
   Rotor Speed:                         1.2798 rad/s
   Azimuth:                             1.2699 rad
   Wind Speed:                          8.0000 m/s
   Number of continuous states:       260
   Number of discrete states:           0
   Number of constraint states:         0
   Number of inputs:                   69
   Number of outputs:                  38
   Jacobians included in this file?    No

Order of continuous states:
   Row/Column Operating Point                                                   Rotating Frame? Derivative Order Description
   ---------- ---------------                                                   --------------- ---------------- -----------
          1    2.059346886556E-001                                                     F               2         ED 1st tower fore-aft bending mode DOF (internal DOF index = DOF_TFA1), m
          2   -5.118015836914E-003                                                     F               2         ED 1st tower side-to-side bending mode DOF (internal DOF index = DOF_TSS1), m
          3   -6.208481574058E-005                                                     F               2         ED 2nd tower fore-aft bending mode DOF (internal DOF index = DOF_TFA2), m
          4    1.734987404832E-005                                                     F               2         ED 2nd tower side-to-side bending mode DOF (internal DOF index = DOF_TSS2), m
          5    5.081068807567E-005                                                     F               2         ED Nacelle yaw DOF (internal DOF index = DOF_Yaw), rad
          6    5.982241187076E+000                                                     F               2         ED Variable speed generator DOF (internal DOF index = DOF_GeAz), rad
          7    2.961603514944E-005                                                     F               2         ED Drivetrain rotational-flexibility DOF (internal DOF index = DOF_DrTr), rad
          8    3.814756349160E+000                                                     T               2         ED 1st flapwise bending-mode DOF of blade 1 (internal DOF index = DOF_BF(1,1)), m
          9    4.021887095327E+000                                                     T               2         ED 1st flapwise bending-mode DOF of blade 2 (internal DOF index = DOF_BF(2,1)), m
         10    3.637429537306E+000                                                     T               2         ED 1st flapwise bending-mode DOF of blade 3 (internal DOF index = DOF_BF(3,1)), m
         11   -1.670432371305E-001                                                     T               2         ED 1st edgewise bending-mode DOF of blade 1 (internal DOF index = DOF_BE(1,1)), m
         12    5.887700210325E-001                                                     T               2         ED 1st edgewise bending-mode DOF of blade 2 (internal DOF index = DOF_BE(2,1)), m
         13    1.921346674541E-001                                                     T               2         ED 1st edgewise bending-mode DOF of blade 3 (internal DOF index = DOF_BE(3,1)), m
         14    5.108461419144E-002                                                     T               2         ED 2nd flapwise bending-mode DOF of blade 1 (internal DOF index = DOF_BF(1,2)), m
         15    1.777545124457E-001                                                     T               2         ED 2nd flapwise bending-mode DOF of blade 2 (internal DOF index = DOF_BF(2,2)), m
         16    1.375692856866E-001                                                     T               2         ED 2nd flapwise bending-mode DOF of blade 3 (internal DOF index = DOF_BF(3,2)), m
         17    4.685447837325E-001                                                     F               2         ED First time derivative of 1st tower fore-aft bending mode DOF (internal DOF index = DOF_TFA1), m/s
         18    1.821519002712E-002                                                     F               2         ED First time derivative of 1st tower side-to-side bending mode DOF (internal DOF index = DOF_TSS1), m/s
         19    1.239809171752E-003                                                     F               2         ED First time derivative of 2nd tower fore-aft bending mode DOF (internal DOF index = DOF_TFA2), m/s
         20    9.941650349022E-005                                                     F               2         ED First time derivative of 2nd tower side-to-side bending mode DOF (internal DOF index = DOF_TSS2), m/s
         21   -1.854983988695E-004                                                     F               2         ED First time derivative of Nacelle yaw DOF (internal DOF index = DOF_Yaw), rad/s
         22    1.277432492585E+000                                                     F               2         ED First time derivative of Variable speed generator DOF (internal DOF index = DOF_GeAz), rad/s
         23    2.390442505369E-003                                                     F               2         ED First time derivative of Drivetrain rotational-flexibility DOF (internal DOF index = DOF_DrTr), rad/s
         24   -3.480769974168E-001                                                     T               2         ED First time derivative of 1st flapwise bending-mode DOF of blade 1 (internal DOF index = DOF_BF(1,1)), m/s
         25   -1.208183829678E+000                                                     T               2         ED First time derivative of 1st flapwise bending-mode DOF of blade 2 (internal DOF index = DOF_BF(2,1)), m/s
         26   -1.597704643771E+000                                                     T               2         ED First time derivative of 1st flapwise bending-mode DOF of blade 3 (internal DOF index = DOF_BF(3,1)), m/s
         27    1.634683311453E-001                                                     T               2         ED First time derivative of 1st edgewise bending-mode DOF of blade 1 (internal DOF index = DOF_BE(1,1)), m/s
         28   -1.244936595942E+000                                                     T               2         ED First time derivative of 1st edgewise bending-mode DOF of blade 2 (internal DOF index = DOF_BE(2,1)), m/s
         29    3.426687117023E-001                                                     T               2         ED First time derivative of 1st edgewise bending-mode DOF of blade 3 (internal DOF index = DOF_BE(3,1)), m/s
         30   -1.506098356141E-001                                                     T               2         ED First time derivative of 2nd flapwise bending-mode DOF of blade 1 (internal DOF index = DOF_BF(1,2)), m/s
         31   -4.827782579697E-001                                                     T               2         ED First time derivative of 2nd flapwise bending-mode DOF of blade 2 (internal DOF index = DOF_BF(2,2)), m/s
         32   -2.068166030856E-001                                                     T               2         ED First time derivative of 2nd flapwise bending-mode DOF of blade 3 (internal DOF index = DOF_BF(3,2)), m/s
         33   -7.916167924614E+000                                                     T               2         AD vind (axial) at blade 1, node 1, m/s
         34    0.000000000000E+000                                                     T               2         AD vind (tangential) at blade 1, node 1, m/s
         35    0.000000000000E+000                                                     T               2         AD vind (axial) at blade 1, node 2, m/s
         36    0.000000000000E+000                                                     T               2         AD vind (tangential) at blade 1, node 2, m/s
         37    0.000000000000E+000                                                     T               2         AD vind (axial) at blade 1, node 3, m/s
         38    0.000000000000E+000                                                     T               2         AD vind (tangential) at blade 1, node 3, m/s
         39    0.000000000000E+000                                                     T               2         AD vind (axial) at blade 1, node 4, m/s
         40    0.000000000000E+000                                                     T               2         AD vind (tangential) at blade 1, node 4, m/s
         41   -2.217833195490E+000                                                     T               2         AD vind (axial) at blade 1, node 5, m/s
         42    8.017185140254E-001                                                     T               2         AD vind (tangential) at blade 1, node 5, m/s
         43   -2.072713345794E+000                                                     T               2         AD vind (axial) at blade 1, node 6, m/s
         44    5.831897137629E-001                                                     T               2         AD vind (tangential) at blade 1, node 6, m/s
         45   -1.839503736796E+000                                                     T               2         AD vind (axial) at blade 1, node 7, m/s
         46    4.312670929925E-001                                                     T               2         AD vind (tangential) at blade 1, node 7, m/s
         47   -1.867926558675E+000                                                     T               2         AD vind (axial) at blade 1, node 8, m/s
         48    3.614985098903E-001                                                     T               2         AD vind (tangential) at blade 1, node 8, m/s
         49   -2.270321542841E+000                                                     T               2         AD vind (axial) at blade 1, node 9, m/s
         50    3.478695559779E-001                                                     T               2         AD vind (tangential) at blade 1, node 9, m/s
         51   -2.435608721173E+000                                                     T               2         AD vind (axial) at blade 1, node 10, m/s
         52    3.129004349814E-001                                                     T               2         AD vind (tangential) at blade 1, node 10, m/s
         53   -3.016371749332E+000                                                     T               2         AD vind (axial) at blade 1, node 11, m/s
         54    3.008043112557E-001                                                     T               2         AD vind (tangential) at blade 1, node 11, m/s
         55   -3.446925930607E+000                                                     T               2         AD vind (axial) at blade 1, node 12, m/s
         56    2.786060311882E-001                                                     T               2         AD vind (tangential) at blade 1, node 12, m/s
         57   -3.432658906147E+000                                                     T               2         AD vind (axial) at blade 1, node 13, m/s
         58    2.459383839466E-001                                                     T               2         AD vind (tangential) at blade 1, node 13, m/s
         59   -3.710489365922E+000                                                     T               2         AD vind (axial) at blade 1, node 14, m/s
         60    2.268791000112E-001                                                     T               2         AD vind (tangential) at blade 1, node 14, m/s
         61   -4.049467622060E+000                                                     T               2         AD vind (axial) at blade 1, node 15, m/s
         62    2.084016153003E-001                                                     T               2         AD vind (tangential) at blade 1, node 15, m/s
         63   -4.235354021562E+000                                                     T               2         AD vind (axial) at blade 1, node 16, m/s
         64    1.990593427195E-001                                                     T               2         AD vind (tangential) at blade 1, node 16, m/s
         65   -4.241021153224E+000                                                     T               2         AD vind (axial) at blade 1, node 17, m/s
         66    1.926371847843E-001                                                     T               2         AD vind (tangential) at blade 1, node 17, m/s
         67   -3.841043589590E+000                                                     T               2         AD vind (axial) at blade 1, node 18, m/s
         68    1.801045948738E-001                                                     T               2         AD vind (tangential) at blade 1, node 18, m/s
         69   -6.074008816499E+000                                                     T               2         AD vind (axial) at blade 1, node 19, m/s
         70    0.000000000000E+000                                                     T               2         AD vind (tangential) at blade 1, node 19, m/s
         71   -7.714832942659E+000                                                     T               2         AD vind (axial) at blade 2, node 1, m/s
         72    0.000000000000E+000                                                     T               2         AD vind (tangential) at blade 2, node 1, m/s
         73    0.000000000000E+000                                                     T               2         AD vind (axial) at blade 2, node 2, m/s
         74    0.000000000000E+000                                                     T               2         AD vind (tangential) at blade 2, node 2, m/s
         75    0.000000000000E+000                                                     T               2         AD vind (axial) at blade 2, node 3, m/s
         76    0.000000000000E+000                                                     T               2         AD vind (tangential) at blade 2, node 3, m/s
         77    0.000000000000E+000                                                     T               2         AD vind (axial) at blade 2, node 4, m/s
         78    0.000000000000E+000                                                     T               2         AD vind (tangential) at blade 2, node 4, m/s
         79   -2.194191033333E+000                                                     T               2         AD vind (axial) at blade 2, node 5, m/s
         80    7.689420518325E-001                                                     T               2         AD vind (tangential) at blade 2, node 5, m/s
         81   -2.048422079238E+000                                                     T               2         AD vind (axial) at blade 2, node 6, m/s
         82    5.655554677077E-001                                                     T               2         AD vind (tangential) at blade 2, node 6, m/s
         83   -1.822946680885E+000                                                     T               2         AD vind (axial) at blade 2, node 7, m/s
         84    4.214829747680E-001                                                     T               2         AD vind (tangential) at blade 2, node 7, m/s
         85   -1.861118799008E+000                                                     T               2         AD vind (axial) at blade 2, node 8, m/s
         86    3.562923179519E-001                                                     T               2         AD vind (tangential) at blade 2, node 8, m/s
         87   -2.276310237270E+000                                                     T               2         AD vind (axial) at blade 2, node 9, m/s
         88    3.458342166267E-001                                                     T               2         AD vind (tangential) at blade 2, node 9, m/s
         89   -2.446224659294E+000                                                     T               2         AD vind (axial) at blade 2, node 10, m/s
         90    3.128421534819E-001                                                     T               2         AD vind (tangential) at blade 2, node 10, m/s
         91   -3.031020285383E+000                                                     T               2         AD vind (axial) at blade 2, node 11, m/s
         92    3.025569559168E-001                                                     T               2         AD vind (tangential) at blade 2, node 11, m/s
         93   -3.457586907144E+000                                                     T               2         AD vind (axial) at blade 2, node 12, m/s
         94    2.818407210450E-001                                                     T               2         AD vind (tangential) at blade 2, node 12, m/s
         95   -3.426050751303E+000                                                     T               2         AD vind (axial) at blade 2, node 13, m/s
         96    2.504847402151E-001                                                     T               2         AD vind (tangential) at blade 2, node 13, m/s
         97   -3.679035899500E+000                                                     T               2         AD vind (axial) at blade 2, node 14, m/s
         98    2.328123429806E-001                                                     T               2         AD vind (tangential) at blade 2, node 14, m/s
         99   -3.932687098988E+000                                                     T               2         AD vind (axial) at blade 2, node 15, m/s
        100    2.171969992158E-001                                                     T               2         AD vind (tangential) at blade 2, node 15, m/s
        101   -3.972536370226E+000                                                     T               2         AD vind (axial) at blade 2, node 16, m/s
        102    2.106150426183E-001                                                     T               2         AD vind (tangential) at blade 2, node 16, m/s
        103   -3.917463978331E+000                                                     T               2         AD vind (axial) at blade 2, node 17, m/s
        104    1.871144423374E-001                                                     T               2         AD vind (tangential) at blade 2, node 17, m/s
        105   -3.557091318102E+000                                                     T               2         AD vind (axial) at blade 2, node 18, m/s
        106    1.711031838705E-001                                                     T               2         AD vind (tangential) at blade 2, node 18, m/s
        107   -6.358781912710E+000                                                     T               2         AD vind (axial) at blade 2, node 19, m/s
        108    0.000000000000E+000                                                     T               2         AD vind (tangential) at blade 2, node 19, m/s
        109   -7.847597553667E+000                                                     T               2         AD vind (axial) at blade 3, node 1, m/s
        110    0.000000000000E+000                                                     T               2         AD vind (tangential) at blade 3, node 1, m/s
        111    0.000000000000E+000                                                     T               2         AD vind (axial) at blade 3, node 2, m/s
        112    0.000000000000E+000                                                     T               2         AD vind (tangential) at blade 3, node 2, m/s
        113    0.000000000000E+000                                                     T               2         AD vind (axial) at blade 3, node 3, m/s
        114    0.000000000000E+000                                                     T               2         AD vind (tangential) at blade 3, node 3, m/s
        115    0.000000000000E+000                                                     T               2         AD vind (axial) at blade 3, node 4, m/s
        116    0.000000000000E+000                                                     T               2         AD vind (tangential) at blade 3, node 4, m/s
        117   -2.237497365396E+000                                                     T               2         AD vind (axial) at blade 3, node 5, m/s
        118    8.527566718035E-001                                                     T               2         AD vind (tangential) at blade 3, node 5, m/s
        119   -2.113397088547E+000                                                     T               2         AD vind (axial) at blade 3, node 6, m/s
        120    6.155203294633E-001                                                     T               2         AD vind (tangential) at blade 3, node 6, m/s
        121   -1.875097985069E+000                                                     T               2         AD vind (axial) at blade 3, node 7, m/s
        122    4.512499592298E-001                                                     T               2         AD vind (tangential) at blade 3, node 7, m/s
        123   -1.891400082820E+000                                                     T               2         AD vind (axial) at blade 3, node 8, m/s
        124    3.741915479762E-001                                                     T               2         AD vind (tangential) at blade 3, node 8, m/s
        125   -2.274152698130E+000                                                     T               2         AD vind (axial) at blade 3, node 9, m/s
        126    3.560316101783E-001                                                     T               2         AD vind (tangential) at blade 3, node 9, m/s
        127   -2.432524901241E+000                                                     T               2         AD vind (axial) at blade 3, node 10, m/s
        128    3.189590261830E-001                                                     T               2         AD vind (tangential) at blade 3, node 10, m/s
        129   -2.994735441580E+000                                                     T               2         AD vind (axial) at blade 3, node 11, m/s
        130    3.058582773865E-001                                                     T               2         AD vind (tangential) at blade 3, node 11, m/s
        131   -3.418988044994E+000                                                     T               2         AD vind (axial) at blade 3, node 12, m/s
        132    2.830993350788E-001                                                     T               2         AD vind (tangential) at blade 3, node 12, m/s
        133   -3.398818533244E+000                                                     T               2         AD vind (axial) at blade 3, node 13, m/s
        134    2.502273663742E-001                                                     T               2         AD vind (tangential) at blade 3, node 13, m/s
        135   -3.672126199315E+000                                                     T               2         AD vind (axial) at blade 3, node 14, m/s
        136    2.314873223520E-001                                                     T               2         AD vind (tangential) at blade 3, node 14, m/s
        137   -3.986074447382E+000                                                     T               2         AD vind (axial) at blade 3, node 15, m/s
        138    2.144059626494E-001                                                     T               2         AD vind (tangential) at blade 3, node 15, m/s
        139   -4.104349317157E+000                                                     T               2         AD vind (axial) at blade 3, node 16, m/s
        140    2.067860000224E-001                                                     T               2         AD vind (tangential) at blade 3, node 16, m/s
        141   -4.090734836345E+000                                                     T               2         AD vind (axial) at blade 3, node 17, m/s
        142    2.021767798441E-001                                                     T               2         AD vind (tangential) at blade 3, node 17, m/s
        143   -3.726757039840E+000                                                     T               2         AD vind (axial) at blade 3, node 18, m/s
        144    1.712190650930E-001                                                     T               2         AD vind (tangential) at blade 3, node 18, m/s
        145   -6.339611607556E+000                                                     T               2         AD vind (axial) at blade 3, node 19, m/s
        146    0.000000000000E+000                                                     T               2         AD vind (tangential) at blade 3, node 19, m/s
        147   -3.176054475537E+000                                                     T               2         AD First time derivative of vind (axial) at blade 1, node 1, m/s/s
        148    0.000000000000E+000                                                     T               2         AD First time derivative of vind (tangential) at blade 1, node 1, m/s/s
        149    0.000000000000E+000                                                     T               2         AD First time derivative of vind (axial) at blade 1, node 2, m/s/s
        150    0.000000000000E+000                                                     T               2         AD First time derivative of vind (tangential) at blade 1, node 2, m/s/s
        151    0.000000000000E+000                                                     T               2         AD First time derivative of vind (axial) at blade 1, node 3, m/s/s
        152    0.000000000000E+000                                                     T               2         AD First time derivative of vind (tangential) at blade 1, node 3, m/s/s
        153    0.000000000000E+000                                                     T               2         AD First time derivative of vind (axial) at blade 1, node 4, m/s/s
        154    0.000000000000E+000                                                     T               2         AD First time derivative of vind (tangential) at blade 1, node 4, m/s/s
        155   -8.915979311811E-001                                                     T               2         AD First time derivative of vind (axial) at blade 1, node 5, m/s/s
        156    3.239721760408E-001                                                     T               2         AD First time derivative of vind (tangential) at blade 1, node 5, m/s/s
        157   -8.353395799460E-001                                                     T               2         AD First time derivative of vind (axial) at blade 1, node 6, m/s/s
        158    2.362239765956E-001                                                     T               2         AD First time derivative of vind (tangential) at blade 1, node 6, m/s/s
        159   -7.432511108182E-001                                                     T               2         AD First time derivative of vind (axial) at blade 1, node 7, m/s/s
        160    1.752512625431E-001                                                     T               2         AD First time derivative of vind (tangential) at blade 1, node 7, m/s/s
        161   -7.558777595226E-001                                                     T               2         AD First time derivative of vind (axial) at blade 1, node 8, m/s/s
        162    1.473552777740E-001                                                     T               2         AD First time derivative of vind (tangential) at blade 1, node 8, m/s/s
        163   -9.174752255154E-001                                                     T               2         AD First time derivative of vind (axial) at blade 1, node 9, m/s/s
        164    1.421161701926E-001                                                     T               2         AD First time derivative of vind (tangential) at blade 1, node 9, m/s/s
        165   -9.852400807428E-001                                                     T               2         AD First time derivative of vind (axial) at blade 1, node 10, m/s/s
        166    1.285507921373E-001                                                     T               2         AD First time derivative of vind (tangential) at blade 1, node 10, m/s/s
        167   -1.215187763570E+000                                                     T               2         AD First time derivative of vind (axial) at blade 1, node 11, m/s/s
        168    1.244801598932E-001                                                     T               2         AD First time derivative of vind (tangential) at blade 1, node 11, m/s/s
        169   -1.388001074517E+000                                                     T               2         AD First time derivative of vind (axial) at blade 1, node 12, m/s/s
        170    1.164114209908E-001                                                     T               2         AD First time derivative of vind (tangential) at blade 1, node 12, m/s/s