
Linearized model: Predictions were generated on 28-Aug-2024 at 16:34:58 using OpenFAST, compiled on Aug 27 2024 at 21:42:35 as a 64-bit application using double precision at commit HEAD-HASH-NOTFOUND
 linked with  NWTC Subroutine Library; ElastoDyn; InflowWind; AeroDyn; ServoDyn

Description from the FAST input file: NREL 5.0 MW Baseline Wind Turbine (Onshore), Linearization with AeroDyn + ED

Simulation information:
   Simulation time:                     1.0000 s
   Rotor Speed:                         1.2798 rad/s
   Azimuth:                             1.2699 rad
   Wind Speed:                          8.0000 m/s
   Number of continuous states:       228
   Number of discrete states:           0
   Number of constraint states:         0
   Number of inputs:                   60
   Number of outputs:                   0
   Jacobians included in this file?    No

Order of continuous states:
   Row/Column Operating Point                                                   Rotating Frame? Derivative Order Description
   ---------- ---------------                                                   --------------- ---------------- -----------
          1   -7.916167924614E+000                                                     T               2         vind (axial) at blade 1, node 1, m/s
          2    0.000000000000E+000                                                     T               2         vind (tangential) at blade 1, node 1, m/s
          3    0.000000000000E+000                                                     T               2         vind (axial) at blade 1, node 2, m/s
          4    0.000000000000E+000                                                     T               2         vind (tangential) at blade 1, node 2, m/s
          5    0.000000000000E+000                                                     T               2         vind (axial) at blade 1, node 3, m/s
          6    0.000000000000E+000                                                     T               2         vind (tangential) at blade 1, node 3, m/s
          7    0.000000000000E+000                                                     T               2         vind (axial) at blade 1, node 4, m/s
          8    0.000000000000E+000                                                     T               2         vind (tangential) at blade 1, node 4, m/s
          9   -2.217833195490E+000                                                     T               2         vind (axial) at blade 1, node 5, m/s
         10    8.017185140254E-001                                                     T               2         vind (tangential) at blade 1, node 5, m/s
         11   -2.072713345794E+000                                                     T               2         vind (axial) at blade 1, node 6, m/s
         12    5.831897137629E-001                                                     T               2         vind (tangential) at blade 1, node 6, m/s
         13   -1.839503736796E+000                                                     T               2         vind (axial) at blade 1, node 7, m/s
         14    4.312670929925E-001                                                     T               2         vind (tangential) at blade 1, node 7, m/s
         15   -1.867926558675E+000                                                     T               2         vind (axial) at blade 1, node 8, m/s
         16    3.614985098903E-001                                                     T               2         vind (tangential) at blade 1, node 8, m/s
         17   -2.270321542841E+000                                                     T               2         vind (axial) at blade 1, node 9, m/s
         18    3.478695559779E-001                                                     T               2         vind (tangential) at blade 1, node 9, m/s
         19   -2.435608721173E+000                                                     T               2         vind (axial) at blade 1, node 10, m/s
         20    3.129004349814E-001                                                     T               2         vind (tangential) at blade 1, node 10, m/s
         21   -3.016371749332E+000                                                     T               2         vind (axial) at blade 1, node 11, m/s
         22    3.008043112557E-001                                                     T               2         vind (tangential) at blade 1, node 11, m/s
         23   -3.446925930607E+000                                                     T               2         vind (axial) at blade 1, node 12, m/s
         24    2.786060311882E-001                                                     T               2         vind (tangential) at blade 1, node 12, m/s
         25   -3.432658906147E+000                                                     T               2         vind (axial) at blade 1, node 13, m/s
         26    2.459383839466E-001                                                     T               2         vind (tangential) at blade 1, node 13, m/s
         27   -3.710489365922E+000                                                     T               2         vind (axial) at blade 1, node 14, m/s
         28    2.268791000112E-001                                                     T               2         vind (tangential) at blade 1, node 14, m/s
         29   -4.049467622060E+000                                                     T               2         vind (axial) at blade 1, node 15, m/s
         30    2.084016153003E-001                                                     T               2         vind (tangential) at blade 1, node 15, m/s
         31   -4.235354021562E+000                                                     T               2         vind (axial) at blade 1, node 16, m/s
         32    1.990593427195E-001                                                     T               2         vind (tangential) at blade 1, node 16, m/s
         33   -4.241021153224E+000                                                     T               2         vind (axial) at blade 1, node 17, m/s
         34    1.926371847843E-001                                                     T               2         vind (tangential) at blade 1, node 17, m/s
         35   -3.841043589590E+000                                                     T               2         vind (axial) at blade 1, node 18, m/s
         36    1.801045948738E-001                                                     T               2         vind (tangential) at blade 1, node 18, m/s
         37   -6.074008816499E+000                                                     T               2         vind (axial) at blade 1, node 19, m/s
         38    0.000000000000E+000                                                     T               2         vind (tangential) at blade 1, node 19, m/s
         39   -7.714832942659E+000                                                     T               2         vind (axial) at blade 2, node 1, m/s
         40    0.000000000000E+000                                                     T               2         vind (tangential) at blade 2, node 1, m/s
         41    0.000000000000E+000                                                     T               2         vind (axial) at blade 2, node 2, m/s
         42    0.000000000000E+000                                                     T               2         vind (tangential) at blade 2, node 2, m/s
         43    0.000000000000E+000                                                     T               2         vind (axial) at blade 2, node 3, m/s
         44    0.000000000000E+000                                                     T               2         vind (tangential) at blade 2, node 3, m/s
         45    0.000000000000E+000                                                     T               2         vind (axial) at blade 2, node 4, m/s
         46    0.000000000000E+000                                                     T               2         vind (tangential) at blade 2, node 4, m/s
         47   -2.194191033333E+000                                                     T               2         vind (axial) at blade 2, node 5, m/s
         48    7.689420518325E-001                                                     T               2         vind (tangential) at blade 2, node 5, m/s
         49   -2.048422079238E+000                                                     T               2         vind (axial) at blade 2, node 6, m/s
         50    5.655554677077E-001                                                     T               2         vind (tangential) at blade 2, node 6, m/s
         51   -1.822946680885E+000                                                     T               2         vind (axial) at blade 2, node 7, m/s
         52    4.214829747680E-001                                                     T               2         vind (tangential) at blade 2, node 7, m/s
         53   -1.861118799008E+000                                                     T               2         vind (axial) at blade 2, node 8, m/s
         54    3.562923179519E-001                                                     T               2         vind (tangential) at blade 2, node 8, m/s
         55   -2.276310237270E+000                                                     T               2         vind (axial) at blade 2, node 9, m/s
         56    3.458342166267E-001                                                     T               2         vind (tangential) at blade 2, node 9, m/s
         57   -2.446224659294E+000                                                     T               2         vind (axial) at blade 2, node 10, m/s
         58    3.128421534819E-001                                                     T               2         vind (tangential) at blade 2, node 10, m/s
         59   -3.031020285383E+000                                                     T               2         vind (axial) at blade 2, node 11, m/s
         60    3.025569559168E-001                                                     T               2         vind (tangential) at blade 2, node 11, m/s
         61   -3.457586907144E+000                                                     T               2         vind (axial) at blade 2, node 12, m/s
         62    2.818407210450E-001                                                     T               2         vind (tangential) at blade 2, node 12, m/s
         63   -3.426050751303E+000                                                     T               2         vind (axial) at blade 2, node 13, m/s
         64    2.504847402151E-001                                                     T               2         vind (tangential) at blade 2, node 13, m/s
         65   -3.679035899500E+000                                                     T               2         vind (axial) at blade 2, node 14, m/s
         66    2.328123429806E-001                                                     T               2         vind (tangential) at blade 2, node 14, m/s
         67   -3.932687098988E+000                                                     T               2         vind (axial) at blade 2, node 15, m/s
         68    2.171969992158E-001                                                     T               2         vind (tangential) at blade 2, node 15, m/s
         69   -3.972536370226E+000                                                     T               2         vind (axial) at blade 2, node 16, m/s
         70    2.106150426183E-001                                                     T               2         vind (tangential) at blade 2, node 16, m/s
         71   -3.917463978331E+000                                                     T               2         vind (axial) at blade 2, node 17, m/s
         72    1.871144423374E-001                                                     T               2         vind (tangential) at blade 2, node 17, m/s
         73   -3.557091318102E+000                                                     T               2         vind (axial) at blade 2, node 18, m/s
         74    1.711031838705E-001                                                     T               2         vind (tangential) at blade 2, node 18, m/s
         75   -6.358781912710E+000                                                     T               2         vind (axial) at blade 2, node 19, m/s
         76    0.000000000000E+000                                                     T               2         vind (tangential) at blade 2, node 19, m/s
         77   -7.847597553667E+000                                                     T               2         vind (axial) at blade 3, node 1, m/s
         78    0.000000000000E+000                                                     T               2         vind (tangential) at blade 3, node 1, m/s
         79    0.000000000000E+000                                                     T               2         vind (axial) at blade 3, node 2, m/s
         80    0.000000000000E+000                                                     T               2         vind (tangential) at blade 3, node 2, m/s
         81    0.000000000000E+000                                                     T               2         vind (axial) at blade 3, node 3, m/s
         82    0.000000000000E+000                                                     T               2         vind (tangential) at blade 3, node 3, m/s
         83    0.000000000000E+000                                                     T               2         vind (axial) at blade 3, node 4, m/s
         84    0.000000000000E+000                                                     T               2         vind (tangential) at blade 3, node 4, m/s
         85   -2.237497365396E+000                                                     T               2         vind (axial) at blade 3, node 5, m/s
         86    8.527566718035E-001                                                     T               2         vind (tangential) at blade 3, node 5, m/s
         87   -2.113397088547E+000                                                     T               2         vind (axial) at blade 3, node 6, m/s
         88    6.155203294633E-001                                                     T               2         vind (tangential) at blade 3, node 6, m/s
         89   -1.875097985069E+000                                                     T               2         vind (axial) at blade 3, node 7, m/s
         90    4.512499592298E-001                                                     T               2         vind (tangential) at blade 3, node 7, m/s
         91   -1.891400082820E+000                                                     T               2         vind (axial) at blade 3, node 8, m/s
         92    3.741915479762E-001                                                     T               2         vind (tangential) at blade 3, node 8, m/s
         93   -2.274152698130E+000                                                     T               2         vind (axial) at blade 3, node 9, m/s
         94    3.560316101783E-001                                                     T               2         vind (tangential) at blade 3, node 9, m/s
         95   -2.432524901241E+000                                                     T               2         vind (axial) at blade 3, node 10, m/s
         96    3.189590261830E-001                                                     T               2         vind (tangential) at blade 3, node 10, m/s
         97   -2.994735441580E+000                                                     T               2         vind (axial) at blade 3, node 11, m/s
         98    3.058582773865E-001                                                     T               2         vind (tangential) at blade 3, node 11, m/s
         99   -3.418988044994E+000                                                     T               2         vind (axial) at blade 3, node 12, m/s
        100    2.830993350788E-001                                                     T               2         vind (tangential) at blade 3, node 12, m/s
        101   -3.398818533244E+000                                                     T               2         vind (axial) at blade 3, node 13, m/s
        102    2.502273663742E-001                                                     T               2         vind (tangential) at blade 3, node 13, m/s
        103   -3.672126199315E+000                                                     T               2         vind (axial) at blade 3, node 14, m/s
        104    2.314873223520E-001                                                     T               2         vind (tangential) at blade 3, node 14, m/s
        105   -3.986074447382E+000                                                     T               2         vind (axial) at blade 3, node 15, m/s
        106    2.144059626494E-001                                                     T               2         vind (tangential) at blade 3, node 15, m/s
        107   -4.104349317157E+000                                                     T               2         vind (axial) at blade 3, node 16, m/s
        108    2.067860000224E-001                                                     T               2         vind (tangential) at blade 3, node 16, m/s
        109   -4.090734836345E+000                                                     T               2         vind (axial) at blade 3, node 17, m/s
        110    2.021767798441E-001                                                     T               2         vind (tangential) at blade 3, node 17, m/s
        111   -3.726757039840E+000                                                     T               2         vind (axial) at blade 3, node 18, m/s
        112    1.712190650930E-001                                                     T               2         vind (tangential) at blade 3, node 18, m/s
        113   -6.339611607556E+000                                                     T               2         vind (axial) at blade 3, node 19, m/s
        114    0.000000000000E+000                                                     T               2         vind (tangential) at blade 3, node 19, m/s
        115   -3.176054475537E+000                                                     T               2         First time derivative of vind (axial) at blade 1, node 1, m/s/s
        116    0.000000000000E+000                                                     T               2         First time derivative of vind (tangential) at blade 1, node 1, m/s/s
        117    0.000000000000E+000                                                     T               2         First time derivative of vind (axial) at blade 1, node 2, m/s/s
        118    0.000000000000E+000                                                     T               2         First time derivative of vind (tangential) at blade 1, node 2, m/s/s
        119    0.000000000000E+000                                                     T               2         First time derivative of vind (axial) at blade 1, node 3, m/s/s
        120    0.000000000000E+000                                                     T               2         First time derivative of vind (tangential) at blade 1, node 3, m/s/s
        121    0.000000000000E+000                                                     T               2         First time derivative of vind (axial) at blade 1, node 4, m/s/s
        122    0.000000000000E+000                                                     T               2         First time derivative of vind (tangential) at blade 1, node 4, m/s/s
        123   -8.915979311811E-001                                                     T               2         First time derivative of vind (axial) at blade 1, node 5, m/s/s
        124    3.239721760408E-001                                                     T               2         First time derivative of vind (tangential) at blade 1, node 5, m/s/s
        125   -8.353395799460E-001                                                     T               2         First time derivative of vind (axial) at blade 1, node 6, m/s/s
        126    2.362239765956E-001                                                     T               2         First time derivative of vind (tangential) at blade 1, node 6, m/s/s
        127   -7.432511108182E-001                                                     T               2         First time derivative of vind (axial) at blade 1, node 7, m/s/s
        128    1.752512625431E-001                                                     T               2         First time derivative of vind (tangential) at blade 1, node 7, m/s/s
        129   -7.558777595226E-001                                                     T               2         First time derivative of vind (axial) at blade 1, node 8, m/s/s
        130    1.473552777740E-001                                                     T               2         First time derivative of vind (tangential) at blade 1, node 8, m/s/s
        131   -9.174752255154E-001                                                     T               2         First time derivative of vind (axial) at blade 1, node 9, m/s/s
        132    1.421161701926E-001                                                     T               2         First time derivative of vind (tangential) at blade 1, node 9, m/s/s
        133   -9.852400807428E-001                                                     T               2         First time derivative of vind (axial) at blade 1, node 10, m/s/s
        134    1.285507921373E-001                                                     T               2         First time derivative of vind (tangential) at blade 1, node 10, m/s/s
        135   -1.215187763570E+000                                                     T               2         First time derivative of vind (axial) at blade 1, node 11, m/s/s
        136    1.244801598932E-001                                                     T               2         First time derivative of vind (tangential) at blade 1, node 11, m/s/s
        137   -1.388001074517E+000                                                     T               2         First time derivative of vind (axial) at blade 1, node 12, m/s/s
        138    1.164114209908E-001                                                     T               2         First time derivative of vind (tangential) at blade 1, node 12, m/s/s
        139   -1.377541496806E+000                                                     T               2         First time derivative of vind (axial) at blade 1, node 13, m/s/s
        140    1.041397040040E-001                                                     T               2         First time derivative of vind (tangential) at blade 1, node 13, m/s/s
        141   -1.488098007884E+000                                                     T               2         First time derivative of vind (axial) at blade 1, node 14, m/s/s
        142    9.759435296741E-002                                                     T               2         First time derivative of vind (tangential) at blade 1, node 14, m/s/s
        143   -1.612214253079E+000                                                     T               2         First time derivative of vind (axial) at blade 1, node 15, m/s/s
        144    9.182921255788E-002                                                     T               2         First time derivative of vind (tangential) at blade 1, node 15, m/s/s
        145   -1.697190317493E+000                                                     T               2         First time derivative of vind (axial) at blade 1, node 16, m/s/s
        146    8.902782007849E-002                                                     T               2         First time derivative of vind (tangential) at blade 1, node 16, m/s/s
        147   -1.731996902970E+000                                                     T               2         First time derivative of vind (axial) at blade 1, node 17, m/s/s
        148    8.744133441996E-002                                                     T               2         First time derivative of vind (tangential) at blade 1, node 17, m/s/s
        149   -1.630111232355E+000                                                     T               2         First time derivative of vind (axial) at blade 1, node 18, m/s/s
        150    8.423760258700E-002                                                     T               2         First time derivative of vind (tangential) at blade 1, node 18, m/s/s
        151   -2.832348148865E+000                                                     T               2         First time derivative of vind (axial) at blade 1, node 19, m/s/s
        152    0.000000000000E+000                                                     T               2         First time derivative of vind (tangential) at blade 1, node 19, m/s/s
        153   -3.108757975660E+000                                                     T               2         First time derivative of vind (axial) at blade 2, node 1, m/s/s
        154    0.000000000000E+000                                                     T               2         First time derivative of vind (tangential) at blade 2, node 1, m/s/s
        155    0.000000000000E+000                                                     T               2         First time derivative of vind (axial) at blade 2, node 2, m/s/s
        156    0.000000000000E+000                                                     T               2         First time derivative of vind (tangential) at blade 2, node 2, m/s/s
        157    0.000000000000E+000                                                     T               2         First time derivative of vind (axial) at blade 2, node 3, m/s/s
        158    0.000000000000E+000                                                     T               2         First time derivative of vind (tangential) at blade 2, node 3, m/s/s
        159    0.000000000000E+000                                                     T               2         First time derivative of vind (axial) at blade 2, node 4, m/s/s
        160    0.000000000000E+000                                                     T               2         First time derivative of vind (tangential) at blade 2, node 4, m/s/s
        161   -8.860548228183E-001                                                     T               2         First time derivative of vind (axial) at blade 2, node 5, m/s/s
        162    3.118577532458E-001                                                     T               2         First time derivative of vind (tangential) at blade 2, node 5, m/s/s
        163   -8.275142960478E-001                                                     T               2         First time derivative of vind (axial) at blade 2, node 6, m/s/s
        164    2.294072156145E-001                                                     T               2         First time derivative of vind (tangential) at blade 2, node 6, m/s/s
        165   -7.369793066927E-001                                                     T               2         First time derivative of vind (axial) at blade 2, node 7, m/s/s
        166    1.711251733274E-001                                                     T               2         First time derivative of vind (tangential) at blade 2, node 7, m/s/s
        167   -7.524731714903E-001                                                     T               2         First time derivative of vind (axial) at blade 2, node 8, m/s/s
        168    1.447852502229E-001                                                     T               2         First time derivative of vind (tangential) at blade 2, node 8, m/s/s
        169   -9.190633350750E-001                                                     T               2         First time derivative of vind (axial) at blade 2, node 9, m/s/s
        170    1.406219805265E-001                                                     T               2         First time derivative of vind (tangential) at blade 2, node 9, m/s/s
        171   -9.884387302459E-001                                                     T               2         First time derivative of vind (axial) at blade 2, node 10, m/s/s
        172    1.276240624292E-001                                                     T               2         First time derivative of vind (tangential) at blade 2, node 10, m/s/s
        173   -1.222232138121E+000                                                     T               2         First time derivative of vind (axial) at blade 2, node 11, m/s/s
        174    1.239818600944E-001                                                     T               2         First time derivative of vind (tangential) at blade 2, node 11, m/s/s
        175   -1.395608392343E+000                                                     T               2         First time derivative of vind (axial) at blade 2, node 12, m/s/s
        176    1.162252635579E-001                                                     T               2         First time derivative of vind (tangential) at blade 2, node 12, m/s/s
        177   -1.383221411874E+000                                                     T               2         First time derivative of vind (axial) at blade 2, node 13, m/s/s